Compiler and run-time data
===========================================================================
RASPA 2.0.35
Compiled as a 64-bits application
Compiler: gcc 4.4.7 20120313 (Red Hat 4.4.7-4)
Compile Date = Jul 23 2019, Compile Time = 09:36:58

Tue Sep 10 15:33:47 2019
Simulation started on Tuesday, September 10.
The start time was 03:33 PM.

Hostname:    cn656
OS type:     Linu
OS release:  2.6.
OS version:  #91 SMP Thu A

Simulation
===========================================================================
Dimensions: 3
Random number seed: 1568098946
RASPA directory set to: /WORK/nscc-gz_material_1/MOFs/sf_box/raspa2/src
String appended to output-files: 
Number of cycles: 10000
Number of initializing cycles: 5000
Number of equilibration cycles: 0
Print every: 1000
Rectangular boundary condition applied
Timestep: 0.000500
	Degrees of freedom:                        0
	Translational Degrees of freedom:          0
	Rotational Degrees of freedom:             0
	Degrees of freedom Framework:              0


Mutual consistent basic set of units:
======================================
Unit of temperature: Kelvin
Unit of length:      1e-10 [m]
Unit of time:        1e-12 [s]
Unit of mass:        1.66054e-27 [kg]
Unit of charge:      1.60218e-19 [C/particle]

Derived units and their conversion factors:
===========================================
Unit of energy:              1.66054e-23 [J]
Unit of force:               1.66054e-13 [N]
Unit of pressure:            1.66054e+07 [Pa]
Unit of velocity:            100 [m/s]
Unit of acceleration:        1e-08 [m^2/s]
Unit of diffusion:           1e-08 [m^2/s]
Unit of dipole moment:       1.60218e-29 [C.m]
Unit of electric potential:  0.000103643 [V]
Unit of electric field:      1.03643e+06 [V]
Unit of polarizability:      1.54587e-35 [-]
Unit of Coulomb potential:   167101.0800066561  [K]
Unit of dielectric constant: 0.0000154587       [s^2 C^2/(kg m^3)]
Unit of wave vectors:        5.3088374589       [cm^1]
Boltzmann constant:          0.8314464919       [-]

Internal conversion factors:
===========================================
Energy to Kelvin:                                    1.2027242847
FH correction factor                                 2.0211930949
Heat capacity conversion factor:                    10.0000088723
From Debye to internal units:                        4.8032067991
Isothermal compressibility conversion factor:        0.0000000602

Energy conversion factors:
===========================================
From mdyne/A to kcal/mol/A^2:           143.933
From mdyne/A to kj/mol/A^2:             602.214
From mdyne/A to K/A^2:                  72429.7
From mdyne A/rad^2 to kcal/mol/deg^2:   0.0438444


Properties computed
===========================================================================
Movies: no
Radial Distribution Function: no
Number of molecules GCMC histogram: no
Histogram of the molecule positions: no
Free energy profiles: no
Pore Size Distribution Function: no
End-to-end distance: no
Histogram of the energy of the system: no
Compute thermodynamic factors: no
Framework spacing histograms: no
Residence times histograms: no
Distance histograms: no
Bend Angle histograms: no
Dihedral angle histograms: no
Angle between planes histograms: no
Molecule properties: no
Infra-red spectra: no
Mean-squared displacement using modified order-N algorithm: no
Velocity-autocorrelation function modified order-N algorithm: no
Rotational velocity-autocorrelation function modified order-N algorithm: no
Molecular orientation-autocorrelation function modified order-N algorithm: no
Bond orientation-autocorrelation function modified order-N algorithm: no
Mean-squared displacement (conventional algorithm): no
Velocity-autocorrelation function (conventional algorithm): no
3D density grid for adsorbates: no
Compute cation an/or adsorption sites: no
dcTST snapshots: no
Compute pressure and stress: no


VTK
===========================================================================
VTK fractional-range position framework atoms: [-0.001000,1.001000] [-0.001000,1.001000] [-0.001000,1.001000]
VTK fractional-range position framework bonds: [-0.151000,1.151000] [-0.151000,1.151000] [-0.151000,1.151000]
VTK fractional-range com-position adsorbate molecules: [-0.101000,1.101000] [-0.101000,1.101000] [-0.101000,1.101000]
VTK fractional-range com-position cation molecules: [-0.101000,1.101000] [-0.101000,1.101000] [-0.101000,1.101000]
	3D free energy grid made for the full simulation-cell


Thermo/Baro-stat NHC parameters
===========================================================================
External temperature: 273 [K]
Beta: 0.00440558 [energy unit]
External Pressure: 50000 [Pa]


Thermostat chain-length: 3
Timescale parameter for thermostat: 0.150000 [ps]
Barostat chain-length:   3
Timescale parameter for barostat:   0.150000 [ps]

Number of Yoshida-Suzuki decomposition steps: 5
Number of respa steps: 5


Method and settings for electrostatics
===============================================================================
Dielectric constant of the medium : 1.000000
Charge from charge-equilibration: yes
Symmetrize the charges of the framework: yes
Ewald summation is used (exact solution of a periodic system)
Relative precision                : 1e-06
Alpha convergence parameter       : 0.265058
kvec (x,y,z)                      : 10 9 11


CFC-RXMC parameters
===========================================================================
Number of reactions: 0


Rattle parameters
===========================================================================
Distance constraint type: r^2-r^2_0
Bend angle constraint type: theta-theta_0
Dihedral angle constraint type: phi-phi_0
Inversion-bend angle constraint type: chi-chi_0
Out-of-plane distance constraint type: r-r_0


Spectra parameters
===========================================================================
Compute normal modes: no


Minimization parameters
===========================================================================
Generalized coordinates are: Cartesian center-of-mass, elements of the orientational matrix p1,p2,p3 and strain
Potential derivatives are evaluated: analytically
Translation of the system is removed from the generalized Hessian: no
Rotation of the system is removed from the generalized Hessian: no
Maximum step-length: 0.3
Convergence factor: 1
Maximum number of minimization steps: 10000
Use gradients in the line-minimizations: yes
RMS gradient tolerance: 1e-06
Maximum gradient tolerance: 1e-06

Distance constraints: 0
Angle constraints: 0
Dihedral constraints: 0

Improper dihedral constraints: 0

Inversion-bend constraints: 0

Out-of-plane constraints: 0

Harmonic distance constraints: 0
Harmonic angle constraints: 0
Harmonic dihedral constraints: 0

Dihedral mid-point measurements: 0

All framework atoms are fixed

Fixed adsorbate atoms:  
Fixed adsorbate groups (center-of-mass):  
Fixed adsorbate groups (orientation):  

Fixed cation atoms:  
Fixed cation groups (center-of-mass):  
Fixed cation groups (orientation):  


dcTST parameters
===========================================================================
Free energy profiles computed: no
Free energy profiles written every 5000 cycles
Free energy mapping: mapped to a,b,c-coordinates
BarrierPosition:       0.0000000000       0.0000000000       0.0000000000
BarrierNormal:         0.0000000000       0.0000000000       0.0000000000
Start with a molecule on top of the barrier: no
Maximum distance to barrier (e.g. distance to minumum free energy):       0.0000000000 [A]
Maximum trajectory time:      10.0000000000 [ps]
Each configuration is used with 5 different initial velocities


Cbmc parameters
===========================================================================
Biasing method: using only the VDW part
Number of trial positions:                                       10
Number of trial positions (reinsertion):                         10
Number of trial positions (partial reinsertion):                 10
Number of trial positions (identity-change):                     10
Number of trial positions (Gibbs particle transfer):             10
Number of trial positions (insertion/deletion):                  10
Number of trial positions (Widom insertion):                     10
Number of trial positions coupled Torsion-selection:             100
Number of trial positions first bead:                            10
Number of trial positions first bead (reinsertion):              10
Number of trial positions first bead (partial reinsertion):      10
Number of trial positions first bead (identity-change):          10
Number of trial positions first bead (Gibbs particle transfer):  10
Number of trial positions first bead (insertion/deletion):       10
Number of trial positions first bead (Widom insertion):          10
Number of trial moves per open bead:                             150
Target acceptance ratio small-mc scheme:                         0.400000
Energy overlap criteria:                                         1e+07
Minimal Rosenbluth factor:                                       1e-150


Pseudo atoms: 169
===========================================================================
Pseudo Atom[   0] Name UNIT     Oxidation:          Element: H    pdb-name: H    Scat. Types:   1   1 Mass=1.000000000  B-factor:0.000   
                 Charge=1.000000000          Polarization=0.000000000  [A^3] (considered a charged atom and no polarization)  Interactions: yes
                 Anisotropic factor:    0.000 [-] (Absolute), Radius:    1.000 [A], Framework-atom:  no
Pseudo Atom[   1] Name H_       Oxidation: +0       Element: H    pdb-name: H    Scat. Types:   1   1 Mass=1.007940000  B-factor:1.000   
                 Charge=0.000000000          Polarization=0.000000000  [A^3] (considered a chargeless atom and no polarization)  Interactions: yes
                 Anisotropic factor:    0.000 [-] (Relative), Radius:    0.371 [A], Framework-atom:  no
Pseudo Atom[   2] Name H_h2     Oxidation: +0       Element: H    pdb-name: H    Scat. Types:   1   1 Mass=1.007940000  B-factor:1.000   
                 Charge=0.468000000          Polarization=0.000000000  [A^3] (considered a charged atom and no polarization)  Interactions: yes
                 Anisotropic factor:    0.000 [-] (Relative), Radius:    0.700 [A], Framework-atom:  no
Pseudo Atom[   3] Name H_com    Oxidation: +0       Element: H    pdb-name: H    Scat. Types:   1   1 Mass=0.000000000  B-factor:1.000   
                 Charge=-0.936000000         Polarization=0.000000000  [A^3] (considered a charged atom and no polarization)  Interactions: yes
                 Anisotropic factor:    0.000 [-] (Relative), Radius:    0.700 [A], Framework-atom:  no
Pseudo Atom[   4] Name He       Oxidation: +0       Element: He   pdb-name: He   Scat. Types:   3   2 Mass=4.002602000  B-factor:1.000   
                 Charge=0.000000000          Polarization=0.000000000  [A^3] (considered a chargeless atom and no polarization)  Interactions: yes
                 Anisotropic factor:    0.000 [-] (Relative), Radius:    1.300 [A], Framework-atom:  no
Pseudo Atom[   5] Name Li       Oxidation: +0       Element: Li   pdb-name: Li   Scat. Types:   4   3 Mass=6.941000000  B-factor:1.000   
                 Charge=0.000000000          Polarization=0.000000000  [A^3] (considered a chargeless atom and no polarization)  Interactions: yes
                 Anisotropic factor:    0.000 [-] (Relative), Radius:    1.557 [A], Framework-atom:  no
Pseudo Atom[   6] Name Be       Oxidation: +0       Element: Be   pdb-name: Be   Scat. Types:   5   4 Mass=9.012182000  B-factor:1.000   
                 Charge=0.000000000          Polarization=0.000000000  [A^3] (considered a chargeless atom and no polarization)  Interactions: yes
                 Anisotropic factor:    0.000 [-] (Relative), Radius:    1.240 [A], Framework-atom:  no
Pseudo Atom[   7] Name B_       Oxidation: +0       Element: B    pdb-name: B    Scat. Types:   6   4 Mass=10.811000000 B-factor:1.000   
                 Charge=0.000000000          Polarization=0.000000000  [A^3] (considered a chargeless atom and no polarization)  Interactions: yes
                 Anisotropic factor:    0.000 [-] (Relative), Radius:    0.822 [A], Framework-atom:  no
Pseudo Atom[   8] Name C_       Oxidation: +0       Element: C    pdb-name: C    Scat. Types:   7   6 Mass=12.010700000 B-factor:1.000   
                 Charge=0.000000000          Polarization=0.000000000  [A^3] (considered a chargeless atom and no polarization)  Interactions: yes
                 Anisotropic factor:    0.000 [-] (Relative), Radius:    0.759 [A], Framework-atom:  no
Pseudo Atom[   9] Name N_       Oxidation: +0       Element: N    pdb-name: N    Scat. Types:   8   7 Mass=14.006700000 B-factor:1.000   
                 Charge=0.000000000          Polarization=0.000000000  [A^3] (considered a chargeless atom and no polarization)  Interactions: yes
                 Anisotropic factor:    0.000 [-] (Relative), Radius:    0.715 [A], Framework-atom:  no
Pseudo Atom[  10] Name O_       Oxidation: +0       Element: O    pdb-name: O    Scat. Types:   9   8 Mass=15.999400000 B-factor:1.000   
                 Charge=0.000000000          Polarization=0.000000000  [A^3] (considered a chargeless atom and no polarization)  Interactions: yes
                 Anisotropic factor:    0.000 [-] (Relative), Radius:    0.669 [A], Framework-atom:  no
Pseudo Atom[  11] Name F_       Oxidation: +0       Element: F    pdb-name: F    Scat. Types:  10   9 Mass=18.998403200 B-factor:1.000   
                 Charge=0.000000000          Polarization=0.000000000  [A^3] (considered a chargeless atom and no polarization)  Interactions: yes
                 Anisotropic factor:    0.000 [-] (Relative), Radius:    0.706 [A], Framework-atom:  no
Pseudo Atom[  12] Name Ne       Oxidation: +0       Element: Ne   pdb-name: Ne   Scat. Types:  11  10 Mass=20.179700000 B-factor:1.000   
                 Charge=0.000000000          Polarization=0.000000000  [A^3] (considered a chargeless atom and no polarization)  Interactions: yes
                 Anisotropic factor:    0.000 [-] (Relative), Radius:    1.768 [A], Framework-atom:  no
Pseudo Atom[  13] Name Na       Oxidation: +0       Element: Na   pdb-name: Na   Scat. Types:  12  11 Mass=22.989770000 B-factor:1.000   
                 Charge=0.000000000          Polarization=0.000000000  [A^3] (considered a chargeless atom and no polarization)  Interactions: yes
                 Anisotropic factor:    0.000 [-] (Relative), Radius:    2.085 [A], Framework-atom:  no
Pseudo Atom[  14] Name Mg_      Oxidation: +0       Element: Mg   pdb-name: Mg   Scat. Types:  13  12 Mass=24.305000000 B-factor:1.000   
                 Charge=0.000000000          Polarization=0.000000000  [A^3] (considered a chargeless atom and no polarization)  Interactions: yes
                 Anisotropic factor:    0.000 [-] (Relative), Radius:    1.500 [A], Framework-atom:  no
Pseudo Atom[  15] Name Al_      Oxidation: +0       Element: Al   pdb-name: Al   Scat. Types:  14  13 Mass=26.981538000 B-factor:1.000   
                 Charge=0.000000000          Polarization=0.000000000  [A^3] (considered a chargeless atom and no polarization)  Interactions: yes
                 Anisotropic factor:    0.000 [-] (Relative), Radius:    1.201 [A], Framework-atom:  no
Pseudo Atom[  16] Name Si_      Oxidation: +0       Element: Si   pdb-name: Si   Scat. Types:  15  14 Mass=28.085500000 B-factor:1.000   
                 Charge=0.000000000          Polarization=0.000000000  [A^3] (considered a chargeless atom and no polarization)  Interactions: yes
                 Anisotropic factor:    0.000 [-] (Relative), Radius:    1.176 [A], Framework-atom:  no
Pseudo Atom[  17] Name P_       Oxidation: +0       Element: P    pdb-name: P    Scat. Types:  16  15 Mass=30.973761000 B-factor:1.000   
                 Charge=0.000000000          Polarization=0.000000000  [A^3] (considered a chargeless atom and no polarization)  Interactions: yes
                 Anisotropic factor:    0.000 [-] (Relative), Radius:    1.102 [A], Framework-atom:  no
Pseudo Atom[  18] Name S_       Oxidation: +0       Element: S    pdb-name: S    Scat. Types:  17  14 Mass=32.065000000 B-factor:1.000   
                 Charge=0.000000000          Polarization=0.000000000  [A^3] (considered a chargeless atom and no polarization)  Interactions: yes
                 Anisotropic factor:    0.000 [-] (Relative), Radius:    1.047 [A], Framework-atom:  no
Pseudo Atom[  19] Name Cl       Oxidation: +0       Element: Cl   pdb-name: Cl   Scat. Types:  18  17 Mass=35.453000000 B-factor:1.000   
                 Charge=0.000000000          Polarization=0.000000000  [A^3] (considered a chargeless atom and no polarization)  Interactions: yes
                 Anisotropic factor:    0.000 [-] (Relative), Radius:    0.994 [A], Framework-atom:  no
Pseudo Atom[  20] Name Ar       Oxidation: +0       Element: Ar   pdb-name: Ar   Scat. Types:  19  18 Mass=39.948000000 B-factor:1.000   
                 Charge=0.000000000          Polarization=0.000000000  [A^3] (considered a chargeless atom and no polarization)  Interactions: yes
                 Anisotropic factor:    0.000 [-] (Relative), Radius:    2.108 [A], Framework-atom:  no
Pseudo Atom[  21] Name K_       Oxidation: +0       Element: K    pdb-name: K    Scat. Types:  20  19 Mass=39.098300000 B-factor:1.000   
                 Charge=0.000000000          Polarization=0.000000000  [A^3] (considered a chargeless atom and no polarization)  Interactions: yes
                 Anisotropic factor:    0.000 [-] (Relative), Radius:    2.586 [A], Framework-atom:  no
Pseudo Atom[  22] Name Ca_      Oxidation: +0       Element: Ca   pdb-name: Ca   Scat. Types:  21  20 Mass=40.078000000 B-factor:1.000   
                 Charge=0.000000000          Polarization=0.000000000  [A^3] (considered a chargeless atom and no polarization)  Interactions: yes
                 Anisotropic factor:    0.000 [-] (Relative), Radius:    2.000 [A], Framework-atom:  no
Pseudo Atom[  23] Name Sc_      Oxidation: +0       Element: Sc   pdb-name: Sc   Scat. Types:  22  21 Mass=44.955910000 B-factor:1.000   
                 Charge=0.000000000          Polarization=0.000000000  [A^3] (considered a chargeless atom and no polarization)  Interactions: yes
                 Anisotropic factor:    0.000 [-] (Relative), Radius:    1.750 [A], Framework-atom:  no
Pseudo Atom[  24] Name Ti_      Oxidation: +0       Element: Ti   pdb-name: Ti   Scat. Types:  23  22 Mass=47.867000000 B-factor:1.000   
                 Charge=0.000000000          Polarization=0.000000000  [A^3] (considered a chargeless atom and no polarization)  Interactions: yes
                 Anisotropic factor:    0.000 [-] (Relative), Radius:    1.607 [A], Framework-atom:  no
Pseudo Atom[  25] Name V_       Oxidation: +0       Element: V    pdb-name: V    Scat. Types:  24  23 Mass=50.941500000 B-factor:1.000   
                 Charge=0.000000000          Polarization=0.000000000  [A^3] (considered a chargeless atom and no polarization)  Interactions: yes
                 Anisotropic factor:    0.000 [-] (Relative), Radius:    1.470 [A], Framework-atom:  no
Pseudo Atom[  26] Name Cr_      Oxidation: +0       Element: Cr   pdb-name: Cr   Scat. Types:  25  24 Mass=51.996100000 B-factor:1.000   
                 Charge=0.000000000          Polarization=0.000000000  [A^3] (considered a chargeless atom and no polarization)  Interactions: yes
                 Anisotropic factor:    0.000 [-] (Relative), Radius:    1.402 [A], Framework-atom:  no
Pseudo Atom[  27] Name Mn_      Oxidation: +0       Element: Mn   pdb-name: Mn   Scat. Types:  26  25 Mass=54.938049000 B-factor:1.000   
                 Charge=0.000000000          Polarization=0.000000000  [A^3] (considered a chargeless atom and no polarization)  Interactions: yes
                 Anisotropic factor:    0.000 [-] (Relative), Radius:    1.533 [A], Framework-atom:  no
Pseudo Atom[  28] Name Fe_      Oxidation: +0       Element: Fe   pdb-name: Fe   Scat. Types:  27  26 Mass=55.845000000 B-factor:1.000   
                 Charge=0.000000000          Polarization=0.000000000  [A^3] (considered a chargeless atom and no polarization)  Interactions: yes
                 Anisotropic factor:    0.000 [-] (Relative), Radius:    1.393 [A], Framework-atom:  no
Pseudo Atom[  29] Name Co_      Oxidation: +0       Element: Co   pdb-name: Co   Scat. Types:  28  27 Mass=58.933200000 B-factor:1.000   
                 Charge=0.000000000          Polarization=0.000000000  [A^3] (considered a chargeless atom and no polarization)  Interactions: yes
                 Anisotropic factor:    0.000 [-] (Relative), Radius:    1.406 [A], Framework-atom:  no
Pseudo Atom[  30] Name Ni_      Oxidation: +0       Element: Ni   pdb-name: Ni   Scat. Types:  29  28 Mass=58.693400000 B-factor:1.000   
                 Charge=0.000000000          Polarization=0.000000000  [A^3] (considered a chargeless atom and no polarization)  Interactions: yes
                 Anisotropic factor:    0.000 [-] (Relative), Radius:    1.398 [A], Framework-atom:  no
Pseudo Atom[  31] Name Cu_      Oxidation: +0       Element: Cu   pdb-name: Cu   Scat. Types:  30  29 Mass=63.546000000 B-factor:1.000   
                 Charge=0.000000000          Polarization=0.000000000  [A^3] (considered a chargeless atom and no polarization)  Interactions: yes
                 Anisotropic factor:    0.000 [-] (Relative), Radius:    1.434 [A], Framework-atom:  no
Pseudo Atom[  32] Name Zn_      Oxidation: +0       Element: Zn   pdb-name: Zn   Scat. Types:  31  30 Mass=65.409000000 B-factor:1.000   
                 Charge=0.000000000          Polarization=0.000000000  [A^3] (considered a chargeless atom and no polarization)  Interactions: yes
                 Anisotropic factor:    0.000 [-] (Relative), Radius:    1.400 [A], Framework-atom:  no
Pseudo Atom[  33] Name Ga_      Oxidation: +0       Element: Ga   pdb-name: Ga   Scat. Types:  32  31 Mass=69.723000000 B-factor:1.000   
                 Charge=0.000000000          Polarization=0.000000000  [A^3] (considered a chargeless atom and no polarization)  Interactions: yes
                 Anisotropic factor:    0.000 [-] (Relative), Radius:    1.211 [A], Framework-atom:  no
Pseudo Atom[  34] Name Ge_      Oxidation: +0       Element: Ge   pdb-name: Ge   Scat. Types:  33  32 Mass=72.640000000 B-factor:1.000   
                 Charge=0.000000000          Polarization=0.000000000  [A^3] (considered a chargeless atom and no polarization)  Interactions: yes
                 Anisotropic factor:    0.000 [-] (Relative), Radius:    1.189 [A], Framework-atom:  no
Pseudo Atom[  35] Name As_      Oxidation: +0       Element: As   pdb-name: As   Scat. Types:  34  33 Mass=74.921600000 B-factor:1.000   
                 Charge=0.000000000          Polarization=0.000000000  [A^3] (considered a chargeless atom and no polarization)  Interactions: yes
                 Anisotropic factor:    0.000 [-] (Relative), Radius:    1.204 [A], Framework-atom:  no
Pseudo Atom[  36] Name Se_      Oxidation: +0       Element: Se   pdb-name: Se   Scat. Types:  35  34 Mass=78.960000000 B-factor:1.000   
                 Charge=0.000000000          Polarization=0.000000000  [A^3] (considered a chargeless atom and no polarization)  Interactions: yes
                 Anisotropic factor:    0.000 [-] (Relative), Radius:    1.224 [A], Framework-atom:  no
Pseudo Atom[  37] Name Br       Oxidation: +0       Element: Br   pdb-name: Br   Scat. Types:  36  35 Mass=79.904000000 B-factor:1.000   
                 Charge=0.000000000          Polarization=0.000000000  [A^3] (considered a chargeless atom and no polarization)  Interactions: yes
                 Anisotropic factor:    0.000 [-] (Relative), Radius:    1.141 [A], Framework-atom:  no
Pseudo Atom[  38] Name Kr       Oxidation: +0       Element: Kr   pdb-name: Kr   Scat. Types:  37  36 Mass=83.798000000 B-factor:1.000   
                 Charge=0.000000000          Polarization=0.000000000  [A^3] (considered a chargeless atom and no polarization)  Interactions: yes
                 Anisotropic factor:    0.000 [-] (Relative), Radius:    2.270 [A], Framework-atom:  no
Pseudo Atom[  39] Name Rb       Oxidation: +0       Element: Rb   pdb-name: Rb   Scat. Types:  38  37 Mass=85.467800000 B-factor:1.000   
                 Charge=0.000000000          Polarization=0.000000000  [A^3] (considered a chargeless atom and no polarization)  Interactions: yes
                 Anisotropic factor:    0.000 [-] (Relative), Radius:    2.770 [A], Framework-atom:  no
Pseudo Atom[  40] Name Sr_      Oxidation: +0       Element: Sr   pdb-name: Sr   Scat. Types:  39  38 Mass=87.620000000 B-factor:1.000   
                 Charge=0.000000000          Polarization=0.000000000  [A^3] (considered a chargeless atom and no polarization)  Interactions: yes
                 Anisotropic factor:    0.000 [-] (Relative), Radius:    2.415 [A], Framework-atom:  no
Pseudo Atom[  41] Name Y_       Oxidation: +0       Element: Y    pdb-name: Y    Scat. Types:  40  39 Mass=88.905850000 B-factor:1.000   
                 Charge=0.000000000          Polarization=0.000000000  [A^3] (considered a chargeless atom and no polarization)  Interactions: yes
                 Anisotropic factor:    0.000 [-] (Relative), Radius:    1.998 [A], Framework-atom:  no
Pseudo Atom[  42] Name Zr_      Oxidation: +0       Element: Zr   pdb-name: Zr   Scat. Types:  41  40 Mass=91.224000000 B-factor:1.000   
                 Charge=0.000000000          Polarization=0.000000000  [A^3] (considered a chargeless atom and no polarization)  Interactions: yes
                 Anisotropic factor:    0.000 [-] (Relative), Radius:    1.758 [A], Framework-atom:  no
Pseudo Atom[  43] Name Nb_      Oxidation: +0       Element: Nb   pdb-name: Nb   Scat. Types:  42  41 Mass=92.906380000 B-factor:1.000   
                 Charge=0.000000000          Polarization=0.000000000  [A^3] (considered a chargeless atom and no polarization)  Interactions: yes
                 Anisotropic factor:    0.000 [-] (Relative), Radius:    1.603 [A], Framework-atom:  no
Pseudo Atom[  44] Name Mo_      Oxidation: +0       Element: Mo   pdb-name: Mo   Scat. Types:  43  42 Mass=95.940000000 B-factor:1.000   
                 Charge=0.000000000          Polarization=0.000000000  [A^3] (considered a chargeless atom and no polarization)  Interactions: yes
                 Anisotropic factor:    0.000 [-] (Relative), Radius:    1.530 [A], Framework-atom:  no
Pseudo Atom[  45] Name Tc_      Oxidation: +0       Element: Tc   pdb-name: Tc   Scat. Types:  44  43 Mass=97.907216000 B-factor:1.000   
                 Charge=0.000000000          Polarization=0.000000000  [A^3] (considered a chargeless atom and no polarization)  Interactions: yes
                 Anisotropic factor:    0.000 [-] (Relative), Radius:    1.500 [A], Framework-atom:  no
Pseudo Atom[  46] Name Ru_      Oxidation: +0       Element: Ru   pdb-name: Ru   Scat. Types:  45  44 Mass=101.070000000 B-factor:1.000   
                 Charge=0.000000000          Polarization=0.000000000  [A^3] (considered a chargeless atom and no polarization)  Interactions: yes
                 Anisotropic factor:    0.000 [-] (Relative), Radius:    1.500 [A], Framework-atom:  no
Pseudo Atom[  47] Name Rh_      Oxidation: +0       Element: Rh   pdb-name: Rh   Scat. Types:  46  45 Mass=102.905500000 B-factor:1.000   
                 Charge=0.000000000          Polarization=0.000000000  [A^3] (considered a chargeless atom and no polarization)  Interactions: yes
                 Anisotropic factor:    0.000 [-] (Relative), Radius:    1.509 [A], Framework-atom:  no
Pseudo Atom[  48] Name Pd_      Oxidation: +0       Element: Pd   pdb-name: Pd   Scat. Types:  47  46 Mass=106.420000000 B-factor:1.000   
                 Charge=0.000000000          Polarization=0.000000000  [A^3] (considered a chargeless atom and no polarization)  Interactions: yes
                 Anisotropic factor:    0.000 [-] (Relative), Radius:    1.544 [A], Framework-atom:  no
Pseudo Atom[  49] Name Ag_      Oxidation: +0       Element: Ag   pdb-name: Ag   Scat. Types:  48  47 Mass=107.868200000 B-factor:1.000   
                 Charge=0.000000000          Polarization=0.000000000  [A^3] (considered a chargeless atom and no polarization)  Interactions: yes
                 Anisotropic factor:    0.000 [-] (Relative), Radius:    1.622 [A], Framework-atom:  no
Pseudo Atom[  50] Name Cd_      Oxidation: +0       Element: Cd   pdb-name: Cd   Scat. Types:  49  48 Mass=112.411000000 B-factor:1.000   
                 Charge=0.000000000          Polarization=0.000000000  [A^3] (considered a chargeless atom and no polarization)  Interactions: yes
                 Anisotropic factor:    0.000 [-] (Relative), Radius:    1.600 [A], Framework-atom:  no
Pseudo Atom[  51] Name In_      Oxidation: +0       Element: In   pdb-name: In   Scat. Types:  50  49 Mass=114.818000000 B-factor:1.000   
                 Charge=0.000000000          Polarization=0.000000000  [A^3] (considered a chargeless atom and no polarization)  Interactions: yes
                 Anisotropic factor:    0.000 [-] (Relative), Radius:    1.404 [A], Framework-atom:  no
Pseudo Atom[  52] Name Sn_      Oxidation: +0       Element: Sn   pdb-name: Sn   Scat. Types:  51  50 Mass=118.710000000 B-factor:1.000   
                 Charge=0.000000000          Polarization=0.000000000  [A^3] (considered a chargeless atom and no polarization)  Interactions: yes
                 Anisotropic factor:    0.000 [-] (Relative), Radius:    1.354 [A], Framework-atom:  no
Pseudo Atom[  53] Name Sb_      Oxidation: +0       Element: Sb   pdb-name: Sb   Scat. Types:  52  51 Mass=121.760000000 B-factor:1.000   
                 Charge=0.000000000          Polarization=0.000000000  [A^3] (considered a chargeless atom and no polarization)  Interactions: yes
                 Anisotropic factor:    0.000 [-] (Relative), Radius:    1.404 [A], Framework-atom:  no
Pseudo Atom[  54] Name Te_      Oxidation: +0       Element: Te   pdb-name: Te   Scat. Types:  53  52 Mass=127.600000000 B-factor:1.000   
                 Charge=0.000000000          Polarization=0.000000000  [A^3] (considered a chargeless atom and no polarization)  Interactions: yes
                 Anisotropic factor:    0.000 [-] (Relative), Radius:    1.380 [A], Framework-atom:  no
Pseudo Atom[  55] Name I_       Oxidation: +0       Element: I    pdb-name: I    Scat. Types:  54  49 Mass=126.904470000 B-factor:1.000   
                 Charge=0.000000000          Polarization=0.000000000  [A^3] (considered a chargeless atom and no polarization)  Interactions: yes
                 Anisotropic factor:    0.000 [-] (Relative), Radius:    1.333 [A], Framework-atom:  no
Pseudo Atom[  56] Name Xe_      Oxidation: +0       Element: Xe   pdb-name: Xe   Scat. Types:  55  54 Mass=131.293000000 B-factor:1.000   
                 Charge=0.000000000          Polarization=0.000000000  [A^3] (considered a chargeless atom and no polarization)  Interactions: yes
                 Anisotropic factor:    0.000 [-] (Relative), Radius:    2.459 [A], Framework-atom:  no
Pseudo Atom[  57] Name Cs_      Oxidation: +0       Element: Cs   pdb-name: Cs   Scat. Types:  56  55 Mass=132.905450000 B-factor:1.000   
                 Charge=0.000000000          Polarization=0.000000000  [A^3] (considered a chargeless atom and no polarization)  Interactions: yes
                 Anisotropic factor:    0.000 [-] (Relative), Radius:    2.984 [A], Framework-atom:  no
Pseudo Atom[  58] Name Ba_      Oxidation: +0       Element: Ba   pdb-name: Ba   Scat. Types:  57  56 Mass=137.327000000 B-factor:1.000   
                 Charge=0.000000000          Polarization=0.000000000  [A^3] (considered a chargeless atom and no polarization)  Interactions: yes
                 Anisotropic factor:    0.000 [-] (Relative), Radius:    2.442 [A], Framework-atom:  no
Pseudo Atom[  59] Name La_      Oxidation: +0       Element: La   pdb-name: La   Scat. Types:  58  57 Mass=138.905500000 B-factor:1.000   
                 Charge=0.000000000          Polarization=0.000000000  [A^3] (considered a chargeless atom and no polarization)  Interactions: yes
                 Anisotropic factor:    0.000 [-] (Relative), Radius:    2.071 [A], Framework-atom:  no
Pseudo Atom[  60] Name Ce_      Oxidation: +0       Element: Ce   pdb-name: Ce   Scat. Types:  59  58 Mass=140.116000000 B-factor:1.000   
                 Charge=0.000000000          Polarization=0.000000000  [A^3] (considered a chargeless atom and no polarization)  Interactions: yes
                 Anisotropic factor:    0.000 [-] (Relative), Radius:    1.925 [A], Framework-atom:  no
Pseudo Atom[  61] Name Pr_      Oxidation: +0       Element: Pr   pdb-name: Pr   Scat. Types:  60  59 Mass=140.907650000 B-factor:1.000   
                 Charge=0.000000000          Polarization=0.000000000  [A^3] (considered a chargeless atom and no polarization)  Interactions: yes
                 Anisotropic factor:    0.000 [-] (Relative), Radius:    2.007 [A], Framework-atom:  no
Pseudo Atom[  62] Name Nd_      Oxidation: +0       Element: Nd   pdb-name: Nd   Scat. Types:  61  60 Mass=144.240000000 B-factor:1.000   
                 Charge=0.000000000          Polarization=0.000000000  [A^3] (considered a chargeless atom and no polarization)  Interactions: yes
                 Anisotropic factor:    0.000 [-] (Relative), Radius:    2.007 [A], Framework-atom:  no
Pseudo Atom[  63] Name Pm_      Oxidation: +0       Element: Pm   pdb-name: Pm   Scat. Types:  62  61 Mass=146.000000000 B-factor:1.000   
                 Charge=0.000000000          Polarization=0.000000000  [A^3] (considered a chargeless atom and no polarization)  Interactions: yes
                 Anisotropic factor:    0.000 [-] (Relative), Radius:    2.000 [A], Framework-atom:  no
Pseudo Atom[  64] Name Sm_      Oxidation: +0       Element: Sm   pdb-name: Sm   Scat. Types:  63  62 Mass=150.360000000 B-factor:1.000   
                 Charge=0.000000000          Polarization=0.000000000  [A^3] (considered a chargeless atom and no polarization)  Interactions: yes
                 Anisotropic factor:    0.000 [-] (Relative), Radius:    1.978 [A], Framework-atom:  no
Pseudo Atom[  65] Name Eu_      Oxidation: +0       Element: Eu   pdb-name: Eu   Scat. Types:  64  63 Mass=151.964000000 B-factor:1.000   
                 Charge=0.000000000          Polarization=0.000000000  [A^3] (considered a chargeless atom and no polarization)  Interactions: yes
                 Anisotropic factor:    0.000 [-] (Relative), Radius:    2.227 [A], Framework-atom:  no
Pseudo Atom[  66] Name Gd_      Oxidation: +0       Element: Gd   pdb-name: Gd   Scat. Types:  65  64 Mass=157.250000000 B-factor:1.000   
                 Charge=0.000000000          Polarization=0.000000000  [A^3] (considered a chargeless atom and no polarization)  Interactions: yes
                 Anisotropic factor:    0.000 [-] (Relative), Radius:    1.968 [A], Framework-atom:  no
Pseudo Atom[  67] Name Tb_      Oxidation: +0       Element: Tb   pdb-name: Tb   Scat. Types:  66  65 Mass=158.925340000 B-factor:1.000   
                 Charge=0.000000000          Polarization=0.000000000  [A^3] (considered a chargeless atom and no polarization)  Interactions: yes
                 Anisotropic factor:    0.000 [-] (Relative), Radius:    1.954 [A], Framework-atom:  no
Pseudo Atom[  68] Name Dy_      Oxidation: +0       Element: Dy   pdb-name: Dy   Scat. Types:  67  66 Mass=162.500000000 B-factor:1.000   
                 Charge=0.000000000          Polarization=0.000000000  [A^3] (considered a chargeless atom and no polarization)  Interactions: yes
                 Anisotropic factor:    0.000 [-] (Relative), Radius:    1.934 [A], Framework-atom:  no
Pseudo Atom[  69] Name Ho_      Oxidation: +0       Element: Ho   pdb-name: Ho   Scat. Types:  68  67 Mass=164.930320000 B-factor:1.000   
                 Charge=0.000000000          Polarization=0.000000000  [A^3] (considered a chargeless atom and no polarization)  Interactions: yes
                 Anisotropic factor:    0.000 [-] (Relative), Radius:    1.925 [A], Framework-atom:  no
Pseudo Atom[  70] Name Er_      Oxidation: +0       Element: Er   pdb-name: Er   Scat. Types:  69  68 Mass=167.259000000 B-factor:1.000   
                 Charge=0.000000000          Polarization=0.000000000  [A^3] (considered a chargeless atom and no polarization)  Interactions: yes
                 Anisotropic factor:    0.000 [-] (Relative), Radius:    1.915 [A], Framework-atom:  no
Pseudo Atom[  71] Name Tm_      Oxidation: +0       Element: Tm   pdb-name: Tm   Scat. Types:  70  69 Mass=168.934210000 B-factor:1.000   
                 Charge=0.000000000          Polarization=0.000000000  [A^3] (considered a chargeless atom and no polarization)  Interactions: yes
                 Anisotropic factor:    0.000 [-] (Relative), Radius:    2.000 [A], Framework-atom:  no
Pseudo Atom[  72] Name Yb_      Oxidation: +0       Element: Yb   pdb-name: Yb   Scat. Types:  71  70 Mass=173.040000000 B-factor:1.000   
                 Charge=0.000000000          Polarization=0.000000000  [A^3] (considered a chargeless atom and no polarization)  Interactions: yes
                 Anisotropic factor:    0.000 [-] (Relative), Radius:    2.158 [A], Framework-atom:  no
Pseudo Atom[  73] Name Lu_      Oxidation: +0       Element: Lu   pdb-name: Lu   Scat. Types:  72  71 Mass=174.967000000 B-factor:1.000   
                 Charge=0.000000000          Polarization=0.000000000  [A^3] (considered a chargeless atom and no polarization)  Interactions: yes
                 Anisotropic factor:    0.000 [-] (Relative), Radius:    1.896 [A], Framework-atom:  no
Pseudo Atom[  74] Name Hf_      Oxidation: +0       Element: Hf   pdb-name: Hf   Scat. Types:  73  72 Mass=178.490000000 B-factor:1.000   
                 Charge=0.000000000          Polarization=0.000000000  [A^3] (considered a chargeless atom and no polarization)  Interactions: yes
                 Anisotropic factor:    0.000 [-] (Relative), Radius:    1.759 [A], Framework-atom:  no
Pseudo Atom[  75] Name Ta_      Oxidation: +0       Element: Ta   pdb-name: Ta   Scat. Types:  74  73 Mass=180.947900000 B-factor:1.000   
                 Charge=0.000000000          Polarization=0.000000000  [A^3] (considered a chargeless atom and no polarization)  Interactions: yes
                 Anisotropic factor:    0.000 [-] (Relative), Radius:    1.605 [A], Framework-atom:  no
Pseudo Atom[  76] Name W_       Oxidation: +0       Element: W    pdb-name: W    Scat. Types:  75  74 Mass=183.840000000 B-factor:1.000   
                 Charge=0.000000000          Polarization=0.000000000  [A^3] (considered a chargeless atom and no polarization)  Interactions: yes
                 Anisotropic factor:    0.000 [-] (Relative), Radius:    1.538 [A], Framework-atom:  no
Pseudo Atom[  77] Name Re_      Oxidation: +0       Element: Re   pdb-name: Re   Scat. Types:  76  75 Mass=186.207000000 B-factor:1.000   
                 Charge=0.000000000          Polarization=0.000000000  [A^3] (considered a chargeless atom and no polarization)  Interactions: yes
                 Anisotropic factor:    0.000 [-] (Relative), Radius:    1.600 [A], Framework-atom:  no
Pseudo Atom[  78] Name Os_      Oxidation: +0       Element: Os   pdb-name: Os   Scat. Types:  77  76 Mass=190.230000000 B-factor:1.000   
                 Charge=0.000000000          Polarization=0.000000000  [A^3] (considered a chargeless atom and no polarization)  Interactions: yes
                 Anisotropic factor:    0.000 [-] (Relative), Radius:    1.700 [A], Framework-atom:  no
Pseudo Atom[  79] Name Ir_      Oxidation: +0       Element: Ir   pdb-name: Ir   Scat. Types:  78  77 Mass=192.217000000 B-factor:1.000   
                 Charge=0.000000000          Polarization=0.000000000  [A^3] (considered a chargeless atom and no polarization)  Interactions: yes
                 Anisotropic factor:    0.000 [-] (Relative), Radius:    1.866 [A], Framework-atom:  no
Pseudo Atom[  80] Name Pt_      Oxidation: +0       Element: Pt   pdb-name: Pt   Scat. Types:  79  78 Mass=195.078000000 B-factor:1.000   
                 Charge=0.000000000          Polarization=0.000000000  [A^3] (considered a chargeless atom and no polarization)  Interactions: yes
                 Anisotropic factor:    0.000 [-] (Relative), Radius:    1.557 [A], Framework-atom:  no
Pseudo Atom[  81] Name Au_      Oxidation: +0       Element: Au   pdb-name: Au   Scat. Types:  80  79 Mass=196.966550000 B-factor:1.000   
                 Charge=0.000000000          Polarization=0.000000000  [A^3] (considered a chargeless atom and no polarization)  Interactions: yes
                 Anisotropic factor:    0.000 [-] (Relative), Radius:    1.618 [A], Framework-atom:  no
Pseudo Atom[  82] Name Hg_      Oxidation: +0       Element: Hg   pdb-name: Hg   Scat. Types:  81  80 Mass=200.590000000 B-factor:1.000   
                 Charge=0.000000000          Polarization=0.000000000  [A^3] (considered a chargeless atom and no polarization)  Interactions: yes
                 Anisotropic factor:    0.000 [-] (Relative), Radius:    1.600 [A], Framework-atom:  no
Pseudo Atom[  83] Name Tl_      Oxidation: +0       Element: Tl   pdb-name: Tl   Scat. Types:  82  81 Mass=204.383300000 B-factor:1.000   
                 Charge=0.000000000          Polarization=0.000000000  [A^3] (considered a chargeless atom and no polarization)  Interactions: yes
                 Anisotropic factor:    0.000 [-] (Relative), Radius:    1.530 [A], Framework-atom:  no
Pseudo Atom[  84] Name Pb_      Oxidation: +0       Element: Pb   pdb-name: Pb   Scat. Types:  83  82 Mass=207.200000000 B-factor:1.000   
                 Charge=0.000000000          Polarization=0.000000000  [A^3] (considered a chargeless atom and no polarization)  Interactions: yes
                 Anisotropic factor:    0.000 [-] (Relative), Radius:    1.444 [A], Framework-atom:  no
Pseudo Atom[  85] Name Bi_      Oxidation: +0       Element: Bi   pdb-name: Bi   Scat. Types:  84  83 Mass=208.980380000 B-factor:1.000   
                 Charge=0.000000000          Polarization=0.000000000  [A^3] (considered a chargeless atom and no polarization)  Interactions: yes
                 Anisotropic factor:    0.000 [-] (Relative), Radius:    1.514 [A], Framework-atom:  no
Pseudo Atom[  86] Name Po_      Oxidation: +0       Element: Po   pdb-name: Po   Scat. Types:  85  84 Mass=209.000000000 B-factor:1.000   
                 Charge=0.000000000          Polarization=0.000000000  [A^3] (considered a chargeless atom and no polarization)  Interactions: yes
                 Anisotropic factor:    0.000 [-] (Relative), Radius:    1.480 [A], Framework-atom:  no
Pseudo Atom[  87] Name At       Oxidation: +0       Element: At   pdb-name: At   Scat. Types:  86  85 Mass=210.000000000 B-factor:1.000   
                 Charge=0.000000000          Polarization=0.000000000  [A^3] (considered a chargeless atom and no polarization)  Interactions: yes
                 Anisotropic factor:    0.000 [-] (Relative), Radius:    1.470 [A], Framework-atom:  no
Pseudo Atom[  88] Name Rn_      Oxidation: +0       Element: Rn   pdb-name: Rn   Scat. Types:  87  86 Mass=222.000000000 B-factor:1.000   
                 Charge=0.000000000          Polarization=0.000000000  [A^3] (considered a chargeless atom and no polarization)  Interactions: yes
                 Anisotropic factor:    0.000 [-] (Relative), Radius:    2.200 [A], Framework-atom:  no
Pseudo Atom[  89] Name Fr       Oxidation: +0       Element: Fr   pdb-name: Fr   Scat. Types:  88  87 Mass=223.000000000 B-factor:1.000   
                 Charge=0.000000000          Polarization=0.000000000  [A^3] (considered a chargeless atom and no polarization)  Interactions: yes
                 Anisotropic factor:    0.000 [-] (Relative), Radius:    2.300 [A], Framework-atom:  no
Pseudo Atom[  90] Name Ra_      Oxidation: +0       Element: Ra   pdb-name: Ra   Scat. Types:  89  88 Mass=226.000000000 B-factor:1.000   
                 Charge=0.000000000          Polarization=0.000000000  [A^3] (considered a chargeless atom and no polarization)  Interactions: yes
                 Anisotropic factor:    0.000 [-] (Relative), Radius:    2.200 [A], Framework-atom:  no
Pseudo Atom[  91] Name Ac_      Oxidation: +0       Element: Ac   pdb-name: Ac   Scat. Types:  90  89 Mass=227.000000000 B-factor:1.000   
                 Charge=0.000000000          Polarization=0.000000000  [A^3] (considered a chargeless atom and no polarization)  Interactions: yes
                 Anisotropic factor:    0.000 [-] (Relative), Radius:    2.108 [A], Framework-atom:  no
Pseudo Atom[  92] Name Th_      Oxidation: +0       Element: Th   pdb-name: Th   Scat. Types:  91  90 Mass=232.038100000 B-factor:1.000   
                 Charge=0.000000000          Polarization=0.000000000  [A^3] (considered a chargeless atom and no polarization)  Interactions: yes
                 Anisotropic factor:    0.000 [-] (Relative), Radius:    2.018 [A], Framework-atom:  no
Pseudo Atom[  93] Name Pa_      Oxidation: +0       Element: Pa   pdb-name: Pa   Scat. Types:  92  91 Mass=231.035880000 B-factor:1.000   
                 Charge=0.000000000          Polarization=0.000000000  [A^3] (considered a chargeless atom and no polarization)  Interactions: yes
                 Anisotropic factor:    0.000 [-] (Relative), Radius:    1.800 [A], Framework-atom:  no
Pseudo Atom[  94] Name U_       Oxidation: +0       Element: U    pdb-name: U    Scat. Types:  93  92 Mass=238.028910000 B-factor:1.000   
                 Charge=0.000000000          Polarization=0.000000000  [A^3] (considered a chargeless atom and no polarization)  Interactions: yes
                 Anisotropic factor:    0.000 [-] (Relative), Radius:    1.713 [A], Framework-atom:  no
Pseudo Atom[  95] Name Np_      Oxidation: +0       Element: Np   pdb-name: Np   Scat. Types:  94  93 Mass=237.000000000 B-factor:1.000   
                 Charge=0.000000000          Polarization=0.000000000  [A^3] (considered a chargeless atom and no polarization)  Interactions: yes
                 Anisotropic factor:    0.000 [-] (Relative), Radius:    1.800 [A], Framework-atom:  no
Pseudo Atom[  96] Name Pu_      Oxidation: +0       Element: Pu   pdb-name: Pu   Scat. Types:  95  94 Mass=244.000000000 B-factor:1.000   
                 Charge=0.000000000          Polarization=0.000000000  [A^3] (considered a chargeless atom and no polarization)  Interactions: yes
                 Anisotropic factor:    0.000 [-] (Relative), Radius:    1.840 [A], Framework-atom:  no
Pseudo Atom[  97] Name Am_      Oxidation: +0       Element: Am   pdb-name: Am   Scat. Types:  96  95 Mass=243.000000000 B-factor:1.000   
                 Charge=0.000000000          Polarization=0.000000000  [A^3] (considered a chargeless atom and no polarization)  Interactions: yes
                 Anisotropic factor:    0.000 [-] (Relative), Radius:    1.942 [A], Framework-atom:  no
Pseudo Atom[  98] Name Cm_      Oxidation: +0       Element: Cm   pdb-name: Cm   Scat. Types:  97  96 Mass=247.000000000 B-factor:1.000   
                 Charge=0.000000000          Polarization=0.000000000  [A^3] (considered a chargeless atom and no polarization)  Interactions: yes
                 Anisotropic factor:    0.000 [-] (Relative), Radius:    1.900 [A], Framework-atom:  no
Pseudo Atom[  99] Name Bk_      Oxidation: +0       Element: Bk   pdb-name: Bk   Scat. Types:  98  97 Mass=247.000000000 B-factor:1.000   
                 Charge=0.000000000          Polarization=0.000000000  [A^3] (considered a chargeless atom and no polarization)  Interactions: yes
                 Anisotropic factor:    0.000 [-] (Relative), Radius:    1.900 [A], Framework-atom:  no
Pseudo Atom[ 100] Name Cf_      Oxidation: +0       Element: Cf   pdb-name: Cf   Scat. Types:  99  98 Mass=251.000000000 B-factor:1.000   
                 Charge=0.000000000          Polarization=0.000000000  [A^3] (considered a chargeless atom and no polarization)  Interactions: yes
                 Anisotropic factor:    0.000 [-] (Relative), Radius:    1.900 [A], Framework-atom:  no
Pseudo Atom[ 101] Name Es_      Oxidation: +0       Element: Es   pdb-name: Es   Scat. Types:  -1  -1 Mass=252.000000000 B-factor:1.000   
                 Charge=0.000000000          Polarization=0.000000000  [A^3] (considered a chargeless atom and no polarization)  Interactions: yes
                 Anisotropic factor:    0.000 [-] (Relative), Radius:    1.900 [A], Framework-atom:  no
Pseudo Atom[ 102] Name Fm_      Oxidation: +0       Element: Fm   pdb-name: Fm   Scat. Types:  -1  -1 Mass=257.000000000 B-factor:1.000   
                 Charge=0.000000000          Polarization=0.000000000  [A^3] (considered a chargeless atom and no polarization)  Interactions: yes
                 Anisotropic factor:    0.000 [-] (Relative), Radius:    1.900 [A], Framework-atom:  no
Pseudo Atom[ 103] Name Md_      Oxidation: +0       Element: Md   pdb-name: Md   Scat. Types:  -1  -1 Mass=258.000000000 B-factor:1.000   
                 Charge=0.000000000          Polarization=0.000000000  [A^3] (considered a chargeless atom and no polarization)  Interactions: yes
                 Anisotropic factor:    0.000 [-] (Relative), Radius:    1.900 [A], Framework-atom:  no
Pseudo Atom[ 104] Name No_      Oxidation: +0       Element: No   pdb-name: No   Scat. Types:  -1  -1 Mass=259.000000000 B-factor:1.000   
                 Charge=0.000000000          Polarization=0.000000000  [A^3] (considered a chargeless atom and no polarization)  Interactions: yes
                 Anisotropic factor:    0.000 [-] (Relative), Radius:    1.900 [A], Framework-atom:  no
Pseudo Atom[ 105] Name Lr_      Oxidation: +0       Element: Lr   pdb-name: Lr   Scat. Types:  -1  -1 Mass=262.000000000 B-factor:1.000   
                 Charge=0.000000000          Polarization=0.000000000  [A^3] (considered a chargeless atom and no polarization)  Interactions: yes
                 Anisotropic factor:    0.000 [-] (Relative), Radius:    1.900 [A], Framework-atom:  no
Pseudo Atom[ 106] Name Li_      Oxidation: +0       Element: Li   pdb-name: Li   Scat. Types:   4   3 Mass=6.941000000  B-factor:1.000   
                 Charge=0.000000000          Polarization=0.000000000  [A^3] (considered a chargeless atom and no polarization)  Interactions: yes
                 Anisotropic factor:    0.000 [-] (Relative), Radius:    1.557 [A], Framework-atom:  no
Pseudo Atom[ 107] Name Na_      Oxidation: +0       Element: Na   pdb-name: Na   Scat. Types:  12  11 Mass=22.989770000 B-factor:1.000   
                 Charge=0.000000000          Polarization=0.000000000  [A^3] (considered a chargeless atom and no polarization)  Interactions: yes
                 Anisotropic factor:    0.000 [-] (Relative), Radius:    2.085 [A], Framework-atom:  no
Pseudo Atom[ 108] Name Zr       Oxidation: +0       Element: Zr   pdb-name: Zr   Scat. Types:  41  40 Mass=91.224000000 B-factor:1.000   
                 Charge=0.000000000          Polarization=0.000000000  [A^3] (considered a chargeless atom and no polarization)  Interactions: yes
                 Anisotropic factor:    0.000 [-] (Relative), Radius:    1.758 [A], Framework-atom:  no
Pseudo Atom[ 109] Name CH4_sp3  Oxidation: +0       Element: C    pdb-name: C    Scat. Types:   7   6 Mass=16.042460000 B-factor:1.000   
                 Charge=0.000000000          Polarization=0.000000000  [A^3] (considered a chargeless atom and no polarization)  Interactions: yes
                 Anisotropic factor:    0.000 [-] (Absolute), Radius:    1.000 [A], Framework-atom:  no
Pseudo Atom[ 110] Name CH3_sp3  Oxidation: +0       Element: C    pdb-name: C    Scat. Types:   7   6 Mass=15.034520000 B-factor:1.000   
                 Charge=0.000000000          Polarization=0.000000000  [A^3] (considered a chargeless atom and no polarization)  Interactions: yes
                 Anisotropic factor:    0.000 [-] (Absolute), Radius:    1.000 [A], Framework-atom:  no
Pseudo Atom[ 111] Name CH2_sp3  Oxidation: +0       Element: C    pdb-name: C    Scat. Types:   7   6 Mass=14.026580000 B-factor:1.000   
                 Charge=0.000000000          Polarization=0.000000000  [A^3] (considered a chargeless atom and no polarization)  Interactions: yes
                 Anisotropic factor:    0.000 [-] (Absolute), Radius:    1.000 [A], Framework-atom:  no
Pseudo Atom[ 112] Name CH_sp3   Oxidation: +0       Element: C    pdb-name: C    Scat. Types:   7   6 Mass=13.018640000 B-factor:1.000   
                 Charge=0.000000000          Polarization=0.000000000  [A^3] (considered a chargeless atom and no polarization)  Interactions: yes
                 Anisotropic factor:    0.000 [-] (Absolute), Radius:    1.000 [A], Framework-atom:  no
Pseudo Atom[ 113] Name C_sp3    Oxidation: +0       Element: C    pdb-name: C    Scat. Types:   7   6 Mass=12.000000000 B-factor:1.000   
                 Charge=0.000000000          Polarization=0.000000000  [A^3] (considered a chargeless atom and no polarization)  Interactions: yes
                 Anisotropic factor:    0.000 [-] (Absolute), Radius:    1.000 [A], Framework-atom:  no
Pseudo Atom[ 114] Name C_co2    Oxidation: +0       Element: C    pdb-name: C    Scat. Types:   7   6 Mass=12.010700000 B-factor:1.000   
                 Charge=0.700000000          Polarization=1.508000000  [A^3] (considered a charged atom and polarizable)  Interactions: yes
                 Anisotropic factor:    0.000 [-] (Relative), Radius:    0.720 [A], Framework-atom:  no
Pseudo Atom[ 115] Name O_co2    Oxidation: +0       Element: O    pdb-name: O    Scat. Types:   9   8 Mass=15.999400000 B-factor:1.000   
                 Charge=-0.350000000         Polarization=0.947500000  [A^3] (considered a charged atom and polarizable)  Interactions: yes
                 Anisotropic factor:    0.000 [-] (Relative), Radius:    0.680 [A], Framework-atom:  no
Pseudo Atom[ 116] Name N_n2     Oxidation: +0       Element: N    pdb-name: N    Scat. Types:   8   7 Mass=14.006740000 B-factor:1.000   
                 Charge=-0.482000000         Polarization=0.000000000  [A^3] (considered a charged atom and no polarization)  Interactions: yes
                 Anisotropic factor:    0.000 [-] (Relative), Radius:    0.700 [A], Framework-atom:  no
Pseudo Atom[ 117] Name N_com    Oxidation: +0       Element: N    pdb-name: N    Scat. Types:   8   7 Mass=0.000000000  B-factor:1.000   
                 Charge=0.964000000          Polarization=0.000000000  [A^3] (considered a charged atom and no polarization)  Interactions: yes
                 Anisotropic factor:    0.000 [-] (Relative), Radius:    0.700 [A], Framework-atom:  no
Pseudo Atom[ 118] Name Ow       Oxidation: +0       Element: O    pdb-name: O    Scat. Types:   9   8 Mass=15.999400000 B-factor:1.000   
                 Charge=0.000000000          Polarization=0.000000000  [A^3] (considered a chargeless atom and no polarization)  Interactions: yes
                 Anisotropic factor:    0.000 [-] (Absolute), Radius:    0.500 [A], Framework-atom:  no
Pseudo Atom[ 119] Name Hw       Oxidation: +0       Element: H    pdb-name: H    Scat. Types:   1   1 Mass=1.008000000  B-factor:1.000   
                 Charge=0.241000000          Polarization=0.000000000  [A^3] (considered a charged atom and no polarization)  Interactions: yes
                 Anisotropic factor:    0.000 [-] (Absolute), Radius:    1.000 [A], Framework-atom:  no
Pseudo Atom[ 120] Name Lw       Oxidation: +0       Element: -    pdb-name: L    Scat. Types:   0   3 Mass=0.000000000  B-factor:1.000   
                 Charge=-0.241000000         Polarization=0.000000000  [A^3] (considered a charged atom and no polarization)  Interactions: yes
                 Anisotropic factor:    0.000 [-] (Absolute), Radius:    1.000 [A], Framework-atom:  no
Pseudo Atom[ 121] Name La1      Oxidation:          Element: La   pdb-name: La   Scat. Types:  58  57 Mass=138.905453983 B-factor:0.000   
                 Charge=1.953349783  (-na-)  Polarization=31.100000000 [A^3] (considered a charged atom and no polarization)  Interactions: yes
                 Anisotropic factor:    0.000 [-] (Absolute), Radius:    1.940 [A], Framework-atom: yes (charge definition not found)
Pseudo Atom[ 122] Name La2      Oxidation:          Element: La   pdb-name: La   Scat. Types:  58  57 Mass=138.905453983 B-factor:0.000   
                 Charge=2.136463366  (-na-)  Polarization=31.100000000 [A^3] (considered a charged atom and no polarization)  Interactions: yes
                 Anisotropic factor:    0.000 [-] (Absolute), Radius:    1.940 [A], Framework-atom: yes (charge definition not found)
Pseudo Atom[ 123] Name N1       Oxidation:          Element: N    pdb-name: N    Scat. Types:   8   7 Mass=14.006703212 B-factor:0.000   
                 Charge=-0.213002285 (-na-)  Polarization=1.100000000  [A^3] (considered a charged atom and no polarization)  Interactions: yes
                 Anisotropic factor:    0.000 [-] (Absolute), Radius:    0.710 [A], Framework-atom: yes (charge definition not found)
Pseudo Atom[ 124] Name C1       Oxidation:          Element: C    pdb-name: C    Scat. Types:   7   6 Mass=12.010735897 B-factor:0.000   
                 Charge=0.155751619  (-na-)  Polarization=1.760000000  [A^3] (considered a charged atom and no polarization)  Interactions: yes
                 Anisotropic factor:    0.000 [-] (Absolute), Radius:    0.750 [A], Framework-atom: yes (charge definition not found)
Pseudo Atom[ 125] Name H1       Oxidation:          Element: H    pdb-name: H    Scat. Types:   1   1 Mass=1.007940754  B-factor:0.000   
                 Charge=-0.063701870 (-na-)  Polarization=0.666793000  [A^3] (considered a charged atom and no polarization)  Interactions: yes
                 Anisotropic factor:    0.000 [-] (Absolute), Radius:    0.320 [A], Framework-atom: yes (charge definition not found)
Pseudo Atom[ 126] Name N2       Oxidation:          Element: N    pdb-name: N    Scat. Types:   8   7 Mass=14.006703212 B-factor:0.000   
                 Charge=-0.233453739 (-na-)  Polarization=1.100000000  [A^3] (considered a charged atom and no polarization)  Interactions: yes
                 Anisotropic factor:    0.000 [-] (Absolute), Radius:    0.710 [A], Framework-atom: yes (charge definition not found)
Pseudo Atom[ 127] Name C2       Oxidation:          Element: C    pdb-name: C    Scat. Types:   7   6 Mass=12.010735897 B-factor:0.000   
                 Charge=-0.023674146 (-na-)  Polarization=1.760000000  [A^3] (considered a charged atom and no polarization)  Interactions: yes
                 Anisotropic factor:    0.000 [-] (Absolute), Radius:    0.750 [A], Framework-atom: yes (charge definition not found)
Pseudo Atom[ 128] Name C3       Oxidation:          Element: C    pdb-name: C    Scat. Types:   7   6 Mass=12.010735897 B-factor:0.000   
                 Charge=-0.024542961 (-na-)  Polarization=1.760000000  [A^3] (considered a charged atom and no polarization)  Interactions: yes
                 Anisotropic factor:    0.000 [-] (Absolute), Radius:    0.750 [A], Framework-atom: yes (charge definition not found)
Pseudo Atom[ 129] Name H2       Oxidation:          Element: H    pdb-name: H    Scat. Types:   1   1 Mass=1.007940754  B-factor:0.000   
                 Charge=0.058127405  (-na-)  Polarization=0.666793000  [A^3] (considered a charged atom and no polarization)  Interactions: yes
                 Anisotropic factor:    0.000 [-] (Absolute), Radius:    0.320 [A], Framework-atom: yes (charge definition not found)
Pseudo Atom[ 130] Name C4       Oxidation:          Element: C    pdb-name: C    Scat. Types:   7   6 Mass=12.010735897 B-factor:0.000   
                 Charge=-0.038165188 (-na-)  Polarization=1.760000000  [A^3] (considered a charged atom and no polarization)  Interactions: yes
                 Anisotropic factor:    0.000 [-] (Absolute), Radius:    0.750 [A], Framework-atom: yes (charge definition not found)
Pseudo Atom[ 131] Name C5       Oxidation:          Element: C    pdb-name: C    Scat. Types:   7   6 Mass=12.010735897 B-factor:0.000   
                 Charge=0.415594326  (-na-)  Polarization=1.760000000  [A^3] (considered a charged atom and no polarization)  Interactions: yes
                 Anisotropic factor:    0.000 [-] (Absolute), Radius:    0.750 [A], Framework-atom: yes (charge definition not found)
Pseudo Atom[ 132] Name O1       Oxidation:          Element: O    pdb-name: O    Scat. Types:   9   8 Mass=15.999404927 B-factor:0.000   
                 Charge=-0.517396947 (-na-)  Polarization=0.802000000  [A^3] (considered a charged atom and no polarization)  Interactions: yes
                 Anisotropic factor:    0.000 [-] (Absolute), Radius:    0.640 [A], Framework-atom: yes (charge definition not found)
Pseudo Atom[ 133] Name O2       Oxidation:          Element: O    pdb-name: O    Scat. Types:   9   8 Mass=15.999404927 B-factor:0.000   
                 Charge=-0.474117446 (-na-)  Polarization=0.802000000  [A^3] (considered a charged atom and no polarization)  Interactions: yes
                 Anisotropic factor:    0.000 [-] (Absolute), Radius:    0.640 [A], Framework-atom: yes (charge definition not found)
Pseudo Atom[ 134] Name C6       Oxidation:          Element: C    pdb-name: C    Scat. Types:   7   6 Mass=12.010735897 B-factor:0.000   
                 Charge=0.335620597  (-na-)  Polarization=1.760000000  [A^3] (considered a charged atom and no polarization)  Interactions: yes
                 Anisotropic factor:    0.000 [-] (Absolute), Radius:    0.750 [A], Framework-atom: yes (charge definition not found)
Pseudo Atom[ 135] Name O3       Oxidation:          Element: O    pdb-name: O    Scat. Types:   9   8 Mass=15.999404927 B-factor:0.000   
                 Charge=-0.445349962 (-na-)  Polarization=0.802000000  [A^3] (considered a charged atom and no polarization)  Interactions: yes
                 Anisotropic factor:    0.000 [-] (Absolute), Radius:    0.640 [A], Framework-atom: yes (charge definition not found)
Pseudo Atom[ 136] Name O4       Oxidation:          Element: O    pdb-name: O    Scat. Types:   9   8 Mass=15.999404927 B-factor:0.000   
                 Charge=-0.301067617 (-na-)  Polarization=0.802000000  [A^3] (considered a charged atom and no polarization)  Interactions: yes
                 Anisotropic factor:    0.000 [-] (Absolute), Radius:    0.640 [A], Framework-atom: yes (charge definition not found)
Pseudo Atom[ 137] Name N3       Oxidation:          Element: N    pdb-name: N    Scat. Types:   8   7 Mass=14.006703212 B-factor:0.000   
                 Charge=-0.225956378 (-na-)  Polarization=1.100000000  [A^3] (considered a charged atom and no polarization)  Interactions: yes
                 Anisotropic factor:    0.000 [-] (Absolute), Radius:    0.710 [A], Framework-atom: yes (charge definition not found)
Pseudo Atom[ 138] Name C7       Oxidation:          Element: C    pdb-name: C    Scat. Types:   7   6 Mass=12.010735897 B-factor:0.000   
                 Charge=0.140055926  (-na-)  Polarization=1.760000000  [A^3] (considered a charged atom and no polarization)  Interactions: yes
                 Anisotropic factor:    0.000 [-] (Absolute), Radius:    0.750 [A], Framework-atom: yes (charge definition not found)
Pseudo Atom[ 139] Name H3       Oxidation:          Element: H    pdb-name: H    Scat. Types:   1   1 Mass=1.007940754  B-factor:0.000   
                 Charge=-0.047769646 (-na-)  Polarization=0.666793000  [A^3] (considered a charged atom and no polarization)  Interactions: yes
                 Anisotropic factor:    0.000 [-] (Absolute), Radius:    0.320 [A], Framework-atom: yes (charge definition not found)
Pseudo Atom[ 140] Name N4       Oxidation:          Element: N    pdb-name: N    Scat. Types:   8   7 Mass=14.006703212 B-factor:0.000   
                 Charge=-0.221130529 (-na-)  Polarization=1.100000000  [A^3] (considered a charged atom and no polarization)  Interactions: yes
                 Anisotropic factor:    0.000 [-] (Absolute), Radius:    0.710 [A], Framework-atom: yes (charge definition not found)
Pseudo Atom[ 141] Name C8       Oxidation:          Element: C    pdb-name: C    Scat. Types:   7   6 Mass=12.010735897 B-factor:0.000   
                 Charge=-0.077232075 (-na-)  Polarization=1.760000000  [A^3] (considered a charged atom and no polarization)  Interactions: yes
                 Anisotropic factor:    0.000 [-] (Absolute), Radius:    0.750 [A], Framework-atom: yes (charge definition not found)
Pseudo Atom[ 142] Name C9       Oxidation:          Element: C    pdb-name: C    Scat. Types:   7   6 Mass=12.010735897 B-factor:0.000   
                 Charge=0.002558949  (-na-)  Polarization=1.760000000  [A^3] (considered a charged atom and no polarization)  Interactions: yes
                 Anisotropic factor:    0.000 [-] (Absolute), Radius:    0.750 [A], Framework-atom: yes (charge definition not found)
Pseudo Atom[ 143] Name H4       Oxidation:          Element: H    pdb-name: H    Scat. Types:   1   1 Mass=1.007940754  B-factor:0.000   
                 Charge=0.022700404  (-na-)  Polarization=0.666793000  [A^3] (considered a charged atom and no polarization)  Interactions: yes
                 Anisotropic factor:    0.000 [-] (Absolute), Radius:    0.320 [A], Framework-atom: yes (charge definition not found)
Pseudo Atom[ 144] Name C10      Oxidation:          Element: C    pdb-name: C    Scat. Types:   7   6 Mass=12.010735897 B-factor:0.000   
                 Charge=-0.054972559 (-na-)  Polarization=1.760000000  [A^3] (considered a charged atom and no polarization)  Interactions: yes
                 Anisotropic factor:    0.000 [-] (Absolute), Radius:    0.750 [A], Framework-atom: yes (charge definition not found)
Pseudo Atom[ 145] Name C11      Oxidation:          Element: C    pdb-name: C    Scat. Types:   7   6 Mass=12.010735897 B-factor:0.000   
                 Charge=0.404683829  (-na-)  Polarization=1.760000000  [A^3] (considered a charged atom and no polarization)  Interactions: yes
                 Anisotropic factor:    0.000 [-] (Absolute), Radius:    0.750 [A], Framework-atom: yes (charge definition not found)
Pseudo Atom[ 146] Name O5       Oxidation:          Element: O    pdb-name: O    Scat. Types:   9   8 Mass=15.999404927 B-factor:0.000   
                 Charge=-0.486884335 (-na-)  Polarization=0.802000000  [A^3] (considered a charged atom and no polarization)  Interactions: yes
                 Anisotropic factor:    0.000 [-] (Absolute), Radius:    0.640 [A], Framework-atom: yes (charge definition not found)
Pseudo Atom[ 147] Name O6       Oxidation:          Element: O    pdb-name: O    Scat. Types:   9   8 Mass=15.999404927 B-factor:0.000   
                 Charge=-0.470200301 (-na-)  Polarization=0.802000000  [A^3] (considered a charged atom and no polarization)  Interactions: yes
                 Anisotropic factor:    0.000 [-] (Absolute), Radius:    0.640 [A], Framework-atom: yes (charge definition not found)
Pseudo Atom[ 148] Name C12      Oxidation:          Element: C    pdb-name: C    Scat. Types:   7   6 Mass=12.010735897 B-factor:0.000   
                 Charge=0.433281530  (-na-)  Polarization=1.760000000  [A^3] (considered a charged atom and no polarization)  Interactions: yes
                 Anisotropic factor:    0.000 [-] (Absolute), Radius:    0.750 [A], Framework-atom: yes (charge definition not found)
Pseudo Atom[ 149] Name O7       Oxidation:          Element: O    pdb-name: O    Scat. Types:   9   8 Mass=15.999404927 B-factor:0.000   
                 Charge=-0.487857297 (-na-)  Polarization=0.802000000  [A^3] (considered a charged atom and no polarization)  Interactions: yes
                 Anisotropic factor:    0.000 [-] (Absolute), Radius:    0.640 [A], Framework-atom: yes (charge definition not found)
Pseudo Atom[ 150] Name O8       Oxidation:          Element: O    pdb-name: O    Scat. Types:   9   8 Mass=15.999404927 B-factor:0.000   
                 Charge=-0.533481011 (-na-)  Polarization=0.802000000  [A^3] (considered a charged atom and no polarization)  Interactions: yes
                 Anisotropic factor:    0.000 [-] (Absolute), Radius:    0.640 [A], Framework-atom: yes (charge definition not found)
Pseudo Atom[ 151] Name C13      Oxidation:          Element: C    pdb-name: C    Scat. Types:   7   6 Mass=12.010735897 B-factor:0.000   
                 Charge=0.234760983  (-na-)  Polarization=1.760000000  [A^3] (considered a charged atom and no polarization)  Interactions: yes
                 Anisotropic factor:    0.000 [-] (Absolute), Radius:    0.750 [A], Framework-atom: yes (charge definition not found)
Pseudo Atom[ 152] Name O9       Oxidation:          Element: O    pdb-name: O    Scat. Types:   9   8 Mass=15.999404927 B-factor:0.000   
                 Charge=-0.384973204 (-na-)  Polarization=0.802000000  [A^3] (considered a charged atom and no polarization)  Interactions: yes
                 Anisotropic factor:    0.000 [-] (Absolute), Radius:    0.640 [A], Framework-atom: yes (charge definition not found)
Pseudo Atom[ 153] Name O10      Oxidation:          Element: O    pdb-name: O    Scat. Types:   9   8 Mass=15.999404927 B-factor:0.000   
                 Charge=-0.400725693 (-na-)  Polarization=0.802000000  [A^3] (considered a charged atom and no polarization)  Interactions: yes
                 Anisotropic factor:    0.000 [-] (Absolute), Radius:    0.640 [A], Framework-atom: yes (charge definition not found)
Pseudo Atom[ 154] Name C14      Oxidation:          Element: C    pdb-name: C    Scat. Types:   7   6 Mass=12.010735897 B-factor:0.000   
                 Charge=0.285724989  (-na-)  Polarization=1.760000000  [A^3] (considered a charged atom and no polarization)  Interactions: yes
                 Anisotropic factor:    0.000 [-] (Absolute), Radius:    0.750 [A], Framework-atom: yes (charge definition not found)
Pseudo Atom[ 155] Name O11      Oxidation:          Element: O    pdb-name: O    Scat. Types:   9   8 Mass=15.999404927 B-factor:0.000   
                 Charge=-0.418786651 (-na-)  Polarization=0.802000000  [A^3] (considered a charged atom and no polarization)  Interactions: yes
                 Anisotropic factor:    0.000 [-] (Absolute), Radius:    0.640 [A], Framework-atom: yes (charge definition not found)
Pseudo Atom[ 156] Name O12      Oxidation:          Element: O    pdb-name: O    Scat. Types:   9   8 Mass=15.999404927 B-factor:0.000   
                 Charge=-0.434215176 (-na-)  Polarization=0.802000000  [A^3] (considered a charged atom and no polarization)  Interactions: yes
                 Anisotropic factor:    0.000 [-] (Absolute), Radius:    0.640 [A], Framework-atom: yes (charge definition not found)
Pseudo Atom[ 157] Name La3      Oxidation:          Element: La   pdb-name: La   Scat. Types:  58  57 Mass=138.905453983 B-factor:0.000   
                 Charge=1.953366838  (-na-)  Polarization=31.100000000 [A^3] (considered a charged atom and no polarization)  Interactions: yes
                 Anisotropic factor:    0.000 [-] (Absolute), Radius:    1.940 [A], Framework-atom: yes (charge definition not found)
Pseudo Atom[ 158] Name La4      Oxidation:          Element: La   pdb-name: La   Scat. Types:  58  57 Mass=138.905453983 B-factor:0.000   
                 Charge=1.953328251  (-na-)  Polarization=31.100000000 [A^3] (considered a charged atom and no polarization)  Interactions: yes
                 Anisotropic factor:    0.000 [-] (Absolute), Radius:    1.940 [A], Framework-atom: yes (charge definition not found)
Pseudo Atom[ 159] Name La5      Oxidation:          Element: La   pdb-name: La   Scat. Types:  58  57 Mass=138.905453983 B-factor:0.000   
                 Charge=-nan         (-na-)  Polarization=31.100000000 [A^3] (considered a charged atom and no polarization)  Interactions: yes
                 Anisotropic factor:    0.000 [-] (Absolute), Radius:    1.940 [A], Framework-atom: yes (charge definition not found)
Pseudo Atom[ 160] Name La6      Oxidation:          Element: La   pdb-name: La   Scat. Types:  58  57 Mass=138.905453983 B-factor:0.000   
                 Charge=2.136456705  (-na-)  Polarization=31.100000000 [A^3] (considered a charged atom and no polarization)  Interactions: yes
                 Anisotropic factor:    0.000 [-] (Absolute), Radius:    1.940 [A], Framework-atom: yes (charge definition not found)
Pseudo Atom[ 161] Name La7      Oxidation:          Element: La   pdb-name: La   Scat. Types:  58  57 Mass=138.905453983 B-factor:0.000   
                 Charge=-nan         (-na-)  Polarization=31.100000000 [A^3] (considered a charged atom and no polarization)  Interactions: yes
                 Anisotropic factor:    0.000 [-] (Absolute), Radius:    1.940 [A], Framework-atom: yes (charge definition not found)
Pseudo Atom[ 162] Name O16      Oxidation:          Element: O    pdb-name: O    Scat. Types:   9   8 Mass=15.999404927 B-factor:0.000   
                 Charge=-0.474119443 (-na-)  Polarization=0.802000000  [A^3] (considered a charged atom and no polarization)  Interactions: yes
                 Anisotropic factor:    0.000 [-] (Absolute), Radius:    0.640 [A], Framework-atom: yes (charge definition not found)
Pseudo Atom[ 163] Name N5       Oxidation:          Element: N    pdb-name: N    Scat. Types:   8   7 Mass=14.006703212 B-factor:0.000   
                 Charge=-nan         (-na-)  Polarization=1.100000000  [A^3] (considered a charged atom and no polarization)  Interactions: yes
                 Anisotropic factor:    0.000 [-] (Absolute), Radius:    0.710 [A], Framework-atom: yes (charge definition not found)
Pseudo Atom[ 164] Name O17      Oxidation:          Element: O    pdb-name: O    Scat. Types:   9   8 Mass=15.999404927 B-factor:0.000   
                 Charge=-0.470207870 (-na-)  Polarization=0.802000000  [A^3] (considered a charged atom and no polarization)  Interactions: yes
                 Anisotropic factor:    0.000 [-] (Absolute), Radius:    0.640 [A], Framework-atom: yes (charge definition not found)
Pseudo Atom[ 165] Name O18      Oxidation:          Element: O    pdb-name: O    Scat. Types:   9   8 Mass=15.999404927 B-factor:0.000   
                 Charge=-nan         (-na-)  Polarization=0.802000000  [A^3] (considered a charged atom and no polarization)  Interactions: yes
                 Anisotropic factor:    0.000 [-] (Absolute), Radius:    0.640 [A], Framework-atom: yes (charge definition not found)
Pseudo Atom[ 166] Name O19      Oxidation:          Element: O    pdb-name: O    Scat. Types:   9   8 Mass=15.999404927 B-factor:0.000   
                 Charge=-0.533482932 (-na-)  Polarization=0.802000000  [A^3] (considered a charged atom and no polarization)  Interactions: yes
                 Anisotropic factor:    0.000 [-] (Absolute), Radius:    0.640 [A], Framework-atom: yes (charge definition not found)
Pseudo Atom[ 167] Name O20      Oxidation:          Element: O    pdb-name: O    Scat. Types:   9   8 Mass=15.999404927 B-factor:0.000   
                 Charge=-0.400690537 (-na-)  Polarization=0.802000000  [A^3] (considered a charged atom and no polarization)  Interactions: yes
                 Anisotropic factor:    0.000 [-] (Absolute), Radius:    0.640 [A], Framework-atom: yes (charge definition not found)
Pseudo Atom[ 168] Name O21      Oxidation:          Element: O    pdb-name: O    Scat. Types:   9   8 Mass=15.999404927 B-factor:0.000   
                 Charge=-0.434252566 (-na-)  Polarization=0.802000000  [A^3] (considered a charged atom and no polarization)  Interactions: yes
                 Anisotropic factor:    0.000 [-] (Absolute), Radius:    0.640 [A], Framework-atom: yes (charge definition not found)


Forcefield: UFF4MOFs
===========================================================================
Minimal distance: 1
CutOff VDW : 12.800000 (163.840000)
CutOff VDW switching on: 11.520000 (132.710400)
CutOff charge-charge : 12.000000 (144.000000)
CutOff charge-charge switching on: 7.800000 (60.840000)
CutOff charge-bonddipole : 12.000000 (144.000000)
CutOff charge-bondipole switching on: 8.400000 (70.560000)
CutOff bonddipole-bonddipole : 12.000000 (144.000000)
CutOff bonddipole-bondipole switching on: 9.000000 (81.000000)
Polarization is neglected
All potentials are shifted to zero at the Cutoff

General mixing rule: Lorentz-Berthelot mixing rules are used FIRST for cross terms
0 cross terms are overwritten using the individual mixing rules from the file 'force_field_mixing_rules.def'
and then 0 terms are overwritten using the specific interactions from the file 'force_field.def'

The force field and all the interactions:
     H_ -      H_ [LENNARD_JONES] p_0/k_B:  22.14150 [K], p_1: 2.57110 [A], shift/k_B:  -0.00581691 [K], tailcorrection: no
     H_ -    H_h2 [ZERO_POTENTIAL]
     H_ -   H_com [LENNARD_JONES] p_0/k_B:  28.50602 [K], p_1: 2.76455 [A], shift/k_B:  -0.01157282 [K], tailcorrection: no
     H_ -      He [LENNARD_JONES] p_0/k_B:  15.53520 [K], p_1: 2.60555 [A], shift/k_B:  -0.00442061 [K], tailcorrection: no
     H_ -      Li [LENNARD_JONES] p_0/k_B:  16.68979 [K], p_1: 2.37735 [A], shift/k_B:  -0.00274026 [K], tailcorrection: no
     H_ -      Be [LENNARD_JONES] p_0/k_B:  30.77446 [K], p_1: 2.50830 [A], shift/k_B:  -0.00697016 [K], tailcorrection: no
     H_ -      B_ [LENNARD_JONES] p_0/k_B:  44.78345 [K], p_1: 3.10430 [A], shift/k_B:  -0.03644277 [K], tailcorrection: no
     H_ -      C_ [LENNARD_JONES] p_0/k_B:  34.20392 [K], p_1: 3.00100 [A], shift/k_B:  -0.02271956 [K], tailcorrection: no
     H_ -      N_ [LENNARD_JONES] p_0/k_B:  27.72719 [K], p_1: 2.91590 [A], shift/k_B:  -0.01549819 [K], tailcorrection: no
     H_ -      O_ [LENNARD_JONES] p_0/k_B:  25.85572 [K], p_1: 2.84460 [A], shift/k_B:  -0.01245752 [K], tailcorrection: no
     H_ -      F_ [LENNARD_JONES] p_0/k_B:  23.60292 [K], p_1: 2.78405 [A], shift/k_B:  -0.00999498 [K], tailcorrection: no
     H_ -      Ne [LENNARD_JONES] p_0/k_B:  21.63245 [K], p_1: 2.73015 [A], shift/k_B:  -0.00814674 [K], tailcorrection: no
     H_ -      Na [LENNARD_JONES] p_0/k_B:  18.28276 [K], p_1: 2.61435 [A], shift/k_B:  -0.00530875 [K], tailcorrection: no
     H_ -     Mg_ [LENNARD_JONES] p_0/k_B:  35.16760 [K], p_1: 2.63125 [A], shift/k_B:  -0.01061409 [K], tailcorrection: no
     H_ -     Al_ [LENNARD_JONES] p_0/k_B:  75.01133 [K], p_1: 3.28965 [A], shift/k_B:  -0.08643707 [K], tailcorrection: no
     H_ -     Si_ [LENNARD_JONES] p_0/k_B:  66.92589 [K], p_1: 3.19875 [A], shift/k_B:  -0.06518840 [K], tailcorrection: no
     H_ -      P_ [LENNARD_JONES] p_0/k_B:  58.29497 [K], p_1: 3.13285 [A], shift/k_B:  -0.05011590 [K], tailcorrection: no
     H_ -      S_ [LENNARD_JONES] p_0/k_B:  55.25308 [K], p_1: 3.08295 [A], shift/k_B:  -0.04313907 [K], tailcorrection: no
     H_ -      Cl [LENNARD_JONES] p_0/k_B:  50.29145 [K], p_1: 3.04375 [A], shift/k_B:  -0.03636384 [K], tailcorrection: no
     H_ -      Ar [LENNARD_JONES] p_0/k_B:  45.40116 [K], p_1: 3.00855 [A], shift/k_B:  -0.03061521 [K], tailcorrection: no
     H_ -      K_ [LENNARD_JONES] p_0/k_B:  19.74764 [K], p_1: 2.98360 [A], shift/k_B:  -0.01266745 [K], tailcorrection: no
     H_ -     Ca_ [LENNARD_JONES] p_0/k_B:  51.49553 [K], p_1: 2.79965 [A], shift/k_B:  -0.02254990 [K], tailcorrection: no
[...]

Unitcell inverse box[0]:
	    0.082406262876    -0.000000000000    -0.000000000000
	    0.000000000000     0.090565764330    -0.000000000000
	    0.000000000000     0.000000000000     0.050888254482

lengths of cell vectors (inverse box):
  0.02747   0.03019   0.02544
cosines of cell angles (inverse box):
 -0.00000  -0.00000  -0.00000
perpendicular cell widths (inverse):
  0.02747   0.03019   0.02544
volume of the cell: 47394.797788827906 (A^3)

No replicas are used
Framework is simulated as 'rigid'
Number of framework atoms: 2592
Number of framework atoms in the unit cell: 144
Framework Mass: 50256.910476631478 [g/mol]
Framework Density:  1760.816588004667 [kg/m^3]    0.5679183208588 [cm^3/g]
Helium void fraction:    0.36804300
Available pore volume: 17443.32356259 [A^3]    0.20901836 [cm^3/g]
Conversion factor from molecule/unit cell -> kmol/m^3: 0.0350363, kmol/m^3 accesible pore volume: 0.0951962

Number Of Frameworks (per system): 1
----------------------------------------------------------------------
Framework name: ABEXEM_clean
Space group: 33
	Identifier: 164
	short international Hermann-Mauguin symbol: P n a 21
	long international Hermann-Mauguin symbol: P n a 21
	Hall symbol: P 2c -2n
	Number of lattice translations: 1 [ (0,0,0) ]
	acentric/centric: acentric
	chiral: no
	enantiomorphic: no
	number of operators: 4
		'x,y,z'
		'-x,-y,z+1/2'
		'x+1/2,-y+1/2,z'
		'-x+1/2,y+1/2,z+1/2'
Framework is simulated as 'rigid'
Shift: 0.000000 0.000000 0.000000
Number of framework atoms: 2592
Number of asymmetric atoms: 48
Number of free framework atoms: 0
Number of fixed framework atoms: 2592
Number of framework atoms in the unit cell: 144
Framework Mass: 50256.910476631478 [g/mol]
Framework Density:  1760.816588004667 [kg/m^3]
Framework has net charge: 0.000000
         largest charge : 2.136463
         smallest charge: -0.533483

Using FULL Host-guest interaction calculation (for testing purposes)

Current Atom Status
===========================================================================
Number of framework atoms        : 2592
Number of cations molecules      : 0
Number of adsorbate molecules    : 0
Component    0 :    0 molecules
Pseudo Atoms    0 [    UNIT]:    0 atoms
Pseudo Atoms    1 [      H_]:    0 atoms
Pseudo Atoms    2 [    H_h2]:    0 atoms
Pseudo Atoms    3 [   H_com]:    0 atoms
Pseudo Atoms    4 [      He]:    0 atoms
Pseudo Atoms    5 [      Li]:    0 atoms
Pseudo Atoms    6 [      Be]:    0 atoms
Pseudo Atoms    7 [      B_]:    0 atoms
Pseudo Atoms    8 [      C_]:    0 atoms
Pseudo Atoms    9 [      N_]:    0 atoms
Pseudo Atoms   10 [      O_]:    0 atoms
Pseudo Atoms   11 [      F_]:    0 atoms
Pseudo Atoms   12 [      Ne]:    0 atoms
Pseudo Atoms   13 [      Na]:    0 atoms
Pseudo Atoms   14 [     Mg_]:    0 atoms
Pseudo Atoms   15 [     Al_]:    0 atoms
Pseudo Atoms   16 [     Si_]:    0 atoms
Pseudo Atoms   17 [      P_]:    0 atoms
Pseudo Atoms   18 [      S_]:    0 atoms
Pseudo Atoms   19 [      Cl]:    0 atoms
Pseudo Atoms   20 [      Ar]:    0 atoms
Pseudo Atoms   21 [      K_]:    0 atoms
Pseudo Atoms   22 [     Ca_]:    0 atoms
Pseudo Atoms   23 [     Sc_]:    0 atoms
Pseudo Atoms   24 [     Ti_]:    0 atoms
Pseudo Atoms   25 [      V_]:    0 atoms
Pseudo Atoms   26 [     Cr_]:    0 atoms
Pseudo Atoms   27 [     Mn_]:    0 atoms
Pseudo Atoms   28 [     Fe_]:    0 atoms
Pseudo Atoms   29 [     Co_]:    0 atoms
Pseudo Atoms   30 [     Ni_]:    0 atoms
Pseudo Atoms   31 [     Cu_]:    0 atoms
Pseudo Atoms   32 [     Zn_]:    0 atoms
Pseudo Atoms   33 [     Ga_]:    0 atoms
Pseudo Atoms   34 [     Ge_]:    0 atoms
Pseudo Atoms   35 [     As_]:    0 atoms
Pseudo Atoms   36 [     Se_]:    0 atoms
Pseudo Atoms   37 [      Br]:    0 atoms
Pseudo Atoms   38 [      Kr]:    0 atoms
Pseudo Atoms   39 [      Rb]:    0 atoms
Pseudo Atoms   40 [     Sr_]:    0 atoms
Pseudo Atoms   41 [      Y_]:    0 atoms
Pseudo Atoms   42 [     Zr_]:    0 atoms
Pseudo Atoms   43 [     Nb_]:    0 atoms
Pseudo Atoms   44 [     Mo_]:    0 atoms
Pseudo Atoms   45 [     Tc_]:    0 atoms
Pseudo Atoms   46 [     Ru_]:    0 atoms
Pseudo Atoms   47 [     Rh_]:    0 atoms
Pseudo Atoms   48 [     Pd_]:    0 atoms
Pseudo Atoms   49 [     Ag_]:    0 atoms
Pseudo Atoms   50 [     Cd_]:    0 atoms
Pseudo Atoms   51 [     In_]:    0 atoms
Pseudo Atoms   52 [     Sn_]:    0 atoms
Pseudo Atoms   53 [     Sb_]:    0 atoms
Pseudo Atoms   54 [     Te_]:    0 atoms
Pseudo Atoms   55 [      I_]:    0 atoms
Pseudo Atoms   56 [     Xe_]:    0 atoms
Pseudo Atoms   57 [     Cs_]:    0 atoms
Pseudo Atoms   58 [     Ba_]:    0 atoms
Pseudo Atoms   59 [     La_]:    0 atoms
Pseudo Atoms   60 [     Ce_]:    0 atoms
Pseudo Atoms   61 [     Pr_]:    0 atoms
Pseudo Atoms   62 [     Nd_]:    0 atoms
Pseudo Atoms   63 [     Pm_]:    0 atoms
Pseudo Atoms   64 [     Sm_]:    0 atoms
Pseudo Atoms   65 [     Eu_]:    0 atoms
Pseudo Atoms   66 [     Gd_]:    0 atoms
Pseudo Atoms   67 [     Tb_]:    0 atoms
Pseudo Atoms   68 [     Dy_]:    0 atoms
Pseudo Atoms   69 [     Ho_]:    0 atoms
Pseudo Atoms   70 [     Er_]:    0 atoms
Pseudo Atoms   71 [     Tm_]:    0 atoms
Pseudo Atoms   72 [     Yb_]:    0 atoms
Pseudo Atoms   73 [     Lu_]:    0 atoms
Pseudo Atoms   74 [     Hf_]:    0 atoms
Pseudo Atoms   75 [     Ta_]:    0 atoms
Pseudo Atoms   76 [      W_]:    0 atoms
Pseudo Atoms   77 [     Re_]:    0 atoms
Pseudo Atoms   78 [     Os_]:    0 atoms
Pseudo Atoms   79 [     Ir_]:    0 atoms
Pseudo Atoms   80 [     Pt_]:    0 atoms
Pseudo Atoms   81 [     Au_]:    0 atoms
Pseudo Atoms   82 [     Hg_]:    0 atoms
Pseudo Atoms   83 [     Tl_]:    0 atoms
Pseudo Atoms   84 [     Pb_]:    0 atoms
Pseudo Atoms   85 [     Bi_]:    0 atoms
Pseudo Atoms   86 [     Po_]:    0 atoms
Pseudo Atoms   87 [      At]:    0 atoms
Pseudo Atoms   88 [     Rn_]:    0 atoms
Pseudo Atoms   89 [      Fr]:    0 atoms
Pseudo Atoms   90 [     Ra_]:    0 atoms
Pseudo Atoms   91 [     Ac_]:    0 atoms
Pseudo Atoms   92 [     Th_]:    0 atoms
Pseudo Atoms   93 [     Pa_]:    0 atoms
Pseudo Atoms   94 [      U_]:    0 atoms
Pseudo Atoms   95 [     Np_]:    0 atoms
Pseudo Atoms   96 [     Pu_]:    0 atoms
Pseudo Atoms   97 [     Am_]:    0 atoms
Pseudo Atoms   98 [     Cm_]:    0 atoms
Pseudo Atoms   99 [     Bk_]:    0 atoms
Pseudo Atoms  100 [     Cf_]:    0 atoms
Pseudo Atoms  101 [     Es_]:    0 atoms
Pseudo Atoms  102 [     Fm_]:    0 atoms
Pseudo Atoms  103 [     Md_]:    0 atoms
Pseudo Atoms  104 [     No_]:    0 atoms
Pseudo Atoms  105 [     Lr_]:    0 atoms
Pseudo Atoms  106 [     Li_]:    0 atoms
Pseudo Atoms  107 [     Na_]:    0 atoms
Pseudo Atoms  108 [      Zr]:    0 atoms
Pseudo Atoms  109 [ CH4_sp3]:    0 atoms
Pseudo Atoms  110 [ CH3_sp3]:    0 atoms
Pseudo Atoms  111 [ CH2_sp3]:    0 atoms
Pseudo Atoms  112 [  CH_sp3]:    0 atoms
Pseudo Atoms  113 [   C_sp3]:    0 atoms
Pseudo Atoms  114 [   C_co2]:    0 atoms
Pseudo Atoms  115 [   O_co2]:    0 atoms
Pseudo Atoms  116 [    N_n2]:    0 atoms
Pseudo Atoms  117 [   N_com]:    0 atoms
Pseudo Atoms  118 [      Ow]:    0 atoms
Pseudo Atoms  119 [      Hw]:    0 atoms
Pseudo Atoms  120 [      Lw]:    0 atoms
Pseudo Atoms  121 [     La1]:   18 atoms
Pseudo Atoms  122 [     La2]:   36 atoms
Pseudo Atoms  123 [      N1]:   72 atoms
Pseudo Atoms  124 [      C1]:   72 atoms
Pseudo Atoms  125 [      H1]:   72 atoms
Pseudo Atoms  126 [      N2]:   72 atoms
Pseudo Atoms  127 [      C2]:   72 atoms
Pseudo Atoms  128 [      C3]:   72 atoms
Pseudo Atoms  129 [      H2]:   72 atoms
Pseudo Atoms  130 [      C4]:   72 atoms
Pseudo Atoms  131 [      C5]:   72 atoms
Pseudo Atoms  132 [      O1]:   72 atoms
Pseudo Atoms  133 [      O2]:   36 atoms
Pseudo Atoms  134 [      C6]:   72 atoms
Pseudo Atoms  135 [      O3]:   72 atoms
Pseudo Atoms  136 [      O4]:   72 atoms
Pseudo Atoms  137 [      N3]:   72 atoms
Pseudo Atoms  138 [      C7]:   72 atoms
Pseudo Atoms  139 [      H3]:   72 atoms
Pseudo Atoms  140 [      N4]:   72 atoms
Pseudo Atoms  141 [      C8]:   72 atoms
Pseudo Atoms  142 [      C9]:   72 atoms
Pseudo Atoms  143 [      H4]:   72 atoms
Pseudo Atoms  144 [     C10]:   72 atoms
Pseudo Atoms  145 [     C11]:   72 atoms
Pseudo Atoms  146 [      O5]:   72 atoms
Pseudo Atoms  147 [      O6]:   36 atoms
Pseudo Atoms  148 [     C12]:   72 atoms
Pseudo Atoms  149 [      O7]:   72 atoms
Pseudo Atoms  150 [      O8]:   36 atoms
Pseudo Atoms  151 [     C13]:   72 atoms
Pseudo Atoms  152 [      O9]:   72 atoms
Pseudo Atoms  153 [     O10]:   36 atoms
Pseudo Atoms  154 [     C14]:   72 atoms
Pseudo Atoms  155 [     O11]:   72 atoms
Pseudo Atoms  156 [     O12]:   36 atoms
Pseudo Atoms  157 [     La3]:   18 atoms
Pseudo Atoms  158 [     La4]:   36 atoms
Pseudo Atoms  159 [     La5]:    0 atoms
Pseudo Atoms  160 [     La6]:   36 atoms
Pseudo Atoms  161 [     La7]:    0 atoms
Pseudo Atoms  162 [     O16]:   36 atoms
Pseudo Atoms  163 [      N5]:    0 atoms
Pseudo Atoms  164 [     O17]:   36 atoms
Pseudo Atoms  165 [     O18]:    0 atoms
Pseudo Atoms  166 [     O19]:   36 atoms
Pseudo Atoms  167 [     O20]:   36 atoms
Pseudo Atoms  168 [     O21]:   36 atoms


Current (initial full energy) Energy Status
===========================================================================

Internal energy:
Host stretch energy:                                            0.00000000
Host UreyBradley energy:                                        0.00000000
Host bend energy:                                               0.00000000
Host inversion-bend energy:                                     0.00000000
Host torsion energy:                                            0.00000000
Host improper torsion energy:                                   0.00000000
Host out-of-plane energy:                                       0.00000000
Host stretch/stretch energy:                                    0.00000000
Host bend/bend energy:                                          0.00000000
Host stretch/bend energy:                                       0.00000000
Host stretch/torsion energy:                                    0.00000000
Host bend/torsion energy:                                       0.00000000

Adsorbate stretch energy:                                       0.00000000
Adsorbate UreyBradley energy:                                   0.00000000
Adsorbate bend energy:                                          0.00000000
Adsorbate inversion-bend energy:                                0.00000000
Adsorbate torsion energy:                                       0.00000000
Adsorbate improper torsion energy:                              0.00000000
Adsorbate out-of-plane energy:                                  0.00000000
Adsorbate stretch/stretch energy:                               0.00000000
Adsorbate bend/bend energy:                                     0.00000000
Adsorbate stretch/bend energy:                                  0.00000000
Adsorbate stretch/torsion energy:                               0.00000000
Adsorbate bend/torsion energy:                                  0.00000000
Adsorbate intra VDW energy:                                     0.00000000
Adsorbate intra charge-charge Coulomb energy:                   0.00000000
Adsorbate intra charge-bonddipole Coulomb energy:               0.00000000
Adsorbate intra bonddipole-bonddipole Coulomb energy:           0.00000000

Cation stretch energy:                                          0.00000000
Cation UreyBradley energy:                                      0.00000000
Cation bend energy:                                             0.00000000
Cation inversion-bend energy:                                   0.00000000
Cation torsion energy:                                          0.00000000
Cation improper torsion energy:                                 0.00000000
Cation out-of-plane energy:                                     0.00000000
Cation stretch/stretch energy:                                  0.00000000
Cation bend/bend energy:                                        0.00000000
Cation stretch/bend energy:                                     0.00000000
Cation stretch/torsion energy:                                  0.00000000
Cation bend/torsion energy:                                     0.00000000
Cation intra VDW energy:                                        0.00000000
Cation intra charge-charge Coulomb energy:                      0.00000000
Cation intra charge-bonddipole Coulomb energy:                  0.00000000
Cation intra bonddipole-bonddipole Coulomb energy:              0.00000000

Host/Host energy:                                             0.00000000
	Host/Host VDW energy:                                         0.00000000
	Host/Host Coulomb energy:                                     0.00000000
	Host/Host charge-charge Real energy:                          0.00000000
	Host/Host charge-charge Fourier energy:                       0.00000000
	Host/Host charge-bonddipole Real energy:                      0.00000000
	Host/Host charge-bonddipole Fourier energy:                   0.00000000
	Host/Host bondipole-bonddipole Real energy:                   0.00000000
	Host/Host bondipole-bonddipole Fourier energy:                0.00000000

Host/Adsorbate energy:                                        0.00000000
	Host/Adsorbate VDW energy:                                    0.00000000
	Host/Adsorbate Coulomb energy:                                0.00000000
	Host/Adsorbate charge-charge Real energy:                     0.00000000
	Host/Adsorbate charge-charge Fourier energy:                  0.00000000
	Host/Adsorbate charge-bonddipole Real energy:                 0.00000000
	Host/Adsorbate charge-bonddipole Fourier energy:              0.00000000
	Host/Adsorbate bondipole-bonddipole Real energy:              0.00000000
	Host/Adsorbate bondipole-bonddipole Fourier energy:           0.00000000

Host/Cation energy:                                           0.00000000
	Host/Cation VDW energy:                                       0.00000000
	Host/Cation Coulomb energy:                                   0.00000000
	Host/Cation charge-charge Real energy:                        0.00000000
	Host/Cation charge-charge Fourier energy:                     0.00000000
	Host/Cation charge-bonddipole Real energy:                    0.00000000
	Host/Cation charge-bonddipole Fourier energy:                 0.00000000
	Host/Cation bondipole-bonddipole Real energy:                 0.00000000
	Host/Cation bondipole-bonddipole Fourier energy:              0.00000000

Adsorbate/Adsorbate energy:                                        0.00000000
	Adsorbate/Adsorbate VDW energy:                                    0.00000000
	Adsorbate/Adsorbate Coulomb energy:                                0.00000000
	Adsorbate/Adsorbate charge-charge Real energy:                     0.00000000
	Adsorbate/Adsorbate charge-charge Fourier energy:                  0.00000000
	Adsorbate/Adsorbate charge-bonddipole Real energy:                 0.00000000
	Adsorbate/Adsorbate charge-bonddipole Fourier energy:              0.00000000
	Adsorbate/Adsorbate bondipole-bonddipole Real energy:              0.00000000
	Adsorbate/Adsorbate bondipole-bonddipole Fourier energy:           0.00000000

Adsorbate/Cation energy:                                           0.00000000
	Adsorbate/Cation VDW energy:                                       0.00000000
	Adsorbate/Cation Coulomb energy:                                   0.00000000
	Adsorbate/Cation charge-charge Real energy:                        0.00000000
	Adsorbate/Cation charge-charge Fourier energy:                     0.00000000
	Adsorbate/Cation charge-bonddipole Real energy:                    0.00000000
	Adsorbate/Cation charge-bonddipole Fourier energy:                 0.00000000
	Adsorbate/Cation bondipole-bonddipole Real energy:                 0.00000000
	Adsorbate/Cation bondipole-bonddipole Fourier energy:              0.00000000

Cation/Cation energy:                                           0.00000000
	Cation/Cation VDW energy:                                       0.00000000
	Cation/Cation Coulomb energy:                                   0.00000000
	Cation/Cation charge-charge Real energy:                        0.00000000
	Cation/Cation charge-charge Fourier energy:                     0.00000000
	Cation/Cation charge-bonddipole Real energy:                    0.00000000
	Cation/Cation charge-bonddipole Fourier energy:                 0.00000000
	Cation/Cation bondipole-bonddipole Real energy:                 0.00000000
	Cation/Cation bondipole-bonddipole Fourier energy:              0.00000000

Polarization energy:
	Host polarization energy:                                     0.00000000
	Adsorbate polarization energy:                                0.00000000
	Cation polarization energy:                                   0.00000000
	Host back-polarization energy:                                     0.00000000
	Adsorbate back-polarization energy:                                0.00000000
	Cation back-polarization energy:                                   0.00000000

Tail-correction energy:                                       0.00000000

Distance constraints energy:                                  0.00000000
Angle constraints energy:                                     0.00000000
Dihedral constraints energy:                                  0.00000000
Inversion-bend constraints energy:                            0.00000000
Out-of-plane distance constraints energy:                     0.00000000
Exclusion constraints energy:                                 0.00000000

===================================================================
Total energy:     0.000000000000
	Total Van der Waals: 0.000000
	Total Coulomb: 0.000000

	Total Polarization: 0.000000







+++++++++++++++++++++++++++++++++++++++++++++++++++++++++++++++++++++++++
Starting simulation
+++++++++++++++++++++++++++++++++++++++++++++++++++++++++++++++++++++++++

[Init] Current cycle: 0 out of 5000
========================================================================================================

Net charge: 2.86549e-13 (F: 2.86549e-13, A: 0, C: 0)
Current Box:  36.40500   0.00000   0.00000 [A]
               0.00000  33.12510   0.00000 [A]
               0.00000   0.00000  39.30180 [A]
Box-lengths:  36.40500  33.12510  39.30180 Box-angles:   90.00000  90.00000  90.00000 [degrees]
Volume: 47394.79779 [A^3]

Loadings per component:
----------------------------------------------------------------------------------------------------------------------------------------------------
Component 0 (CO2), current number of integer/fractional/reaction molecules: 0/0/0, density:   0.00000 [kg/m^3]
	absolute adsorption:   0.00000 [mol/uc],         0.0000 [mol/kg],              0.0000 [mg/g]
	                                                 0.0000 [cm^3 STP/g],          0.0000 [cm^3 STP/cm^3]
	excess adsorption:    -0.01290 [mol/uc],        -0.0046 [mol/kg],             -0.2034 [mg/g]
	                                                -0.1036 [cm^3 STP/g],         -0.1824 [cm^3 STP/cm^3]
----------------------------------------------------------------------------------------------------------------------------------------------------
Degrees of freedom: 0 0 0 0
Number of Framework-atoms:   2592
Number of Adsorbates:           0 (0 integer, 0 fractional, 0 reaction)
Number of Cations:              0 (0 integer, 0 fractional, 0 reaction

Current total potential energy:                 0.0000000000 [K]
	Current Host-Host energy:                     0.0000000000 [K]
	Current Host-Adsorbate energy:                0.0000000000 [K]
	Current Host-Cation energy:                   0.0000000000 [K]
	Current Adsorbate-Adsorbate energy:           0.0000000000 [K]
	Current Cation-Cation energy:                 0.0000000000 [K]
	Current Adsorbate-Cation energy:              0.0000000000 [K]



